Ga    ONCVPSP-4.0.1  r_core=   1.65620   1.75830   1.90049
31.0000     13.0000      220329    zatom,zion,pspd
8      11   2     4   600     0    pspcod,pspxc,lmax,lloc,mmax,r2well
5.99000000  5.00000000  0.00000000    rchrg fchrg qchrg
2     2     2     0     0    nproj
1     1           extension_switch
0                         6.8454934731790E+00  1.0683914762462E+00
1  0.0000000000000E+00 -6.6730255210423E-09  1.3411331489799E-08
2  1.0000000000000E-02  5.0984239010058E-02 -5.6506750953166E-02
3  2.0000000000000E-02  1.0153165513505E-01 -1.1213871141120E-01
4  3.0000000000000E-02  1.5121237870573E-01 -1.6603510024204E-01
5  4.0000000000000E-02  1.9961033554117E-01 -2.1736293206123E-01
6  5.0000000000000E-02  2.4632986906898E-01 -2.6533036114500E-01
7  6.0000000000000E-02  2.9100203652602E-01 -3.0919937029648E-01
8  7.0000000000000E-02  3.3329047856910E-01 -3.4829760233287E-01
9  8.0000000000000E-02  3.7289676829805E-01 -3.8202914527254E-01
10  9.0000000000000E-02  4.0956515384050E-01 -4.0988409867431E-01
11  1.0000000000000E-01  4.4308661814261E-01 -4.3144676766393E-01
12  1.1000000000000E-01  4.7330219030813E-01 -4.4640235268158E-01
13  1.2000000000000E-01  5.0010545456311E-01 -4.5454202656852E-01
14  1.3000000000000E-01  5.2344421551611E-01 -4.5576631591570E-01
15  1.4000000000000E-01  5.4332129163865E-01 -4.5008673023379E-01
16  1.5000000000000E-01  5.5979442260388E-01 -4.3762561005996E-01
17  1.6000000000000E-01  5.7297529008137E-01 -4.1861419316666E-01
18  1.7000000000000E-01  5.8302766557566E-01 -3.9338892614767E-01
19  1.8000000000000E-01  5.9016471270070E-01 -3.6238607639048E-01
20  1.9000000000000E-01  5.9464548468545E-01 -3.2613472637199E-01
21  2.0000000000000E-01  5.9677067070115E-01 -2.8524825791730E-01
22  2.1000000000000E-01  5.9687765658774E-01 -2.4041445813834E-01
23  2.2000000000000E-01  5.9533497654763E-01 -1.9238440084342E-01
24  2.3000000000000E-01  5.9253624219942E-01 -1.4196027693507E-01
25  2.4000000000000E-01  5.8889364388439E-01 -8.9982364379670E-02
26  2.5000000000000E-01  5.8483112616178E-01 -3.7315342467108E-02
27  2.6000000000000E-01  5.8077734490216E-01  1.5165833942132E-02
28  2.7000000000000E-01  5.7715851720131E-01  6.6590276843047E-02
29  2.8000000000000E-01  5.7439127742763E-01  1.1610549666646E-01
30  2.9000000000000E-01  5.7287565304653E-01  1.6289149485295E-01
31  3.0000000000000E-01  5.7298827242428E-01  2.0617439217729E-01
32  3.1000000000000E-01  5.7507591361926E-01  2.4523937402182E-01
33  3.2000000000000E-01  5.7944949826324E-01  2.7944274367485E-01
34  3.3000000000000E-01  5.8637862809020E-01  3.0822288790308E-01
35  3.4000000000000E-01  5.9608675357957E-01  3.3110997532183E-01
36  3.5000000000000E-01  6.0874705466557E-01  3.4773422722339E-01
37  3.6000000000000E-01  6.2447910266531E-01  3.5783262223666E-01
38  3.7000000000000E-01  6.4334636065779E-01  3.6125392015333E-01
39  3.8000000000000E-01  6.6535456668398E-01  3.5796191610723E-01
40  3.9000000000000E-01  6.9045103052891E-01  3.4803686364014E-01
41  4.0000000000000E-01  7.1852486069820E-01  3.3167503361390E-01
42  4.1000000000000E-01  7.4940812372879E-01  3.0918640500027E-01
43  4.2000000000000E-01  7.8287792339945E-01  2.8099051285016E-01
44  4.3000000000000E-01  8.1865937295496E-01  2.4761050776159E-01
45  4.4000000000000E-01  8.5642941935228E-01  2.0966550948172E-01
46  4.5000000000000E-01  8.9582146499618E-01  1.6786136445300E-01
47  4.6000000000000E-01  9.3643071966722E-01  1.2297994272178E-01
48  4.7000000000000E-01  9.7782020355746E-01  7.5867133267159E-02
49  4.8000000000000E-01  1.0195273117036E+00  2.7419718104989E-02
50  4.9000000000000E-01  1.0610708408141E+00 -2.1428675862913E-02
51  5.0000000000000E-01  1.1019583716756E+00 -6.9722332651952E-02
52  5.1000000000000E-01  1.1416938941199E+00 -1.1649868365347E-01
53  5.2000000000000E-01  1.1797855570452E+00 -1.6080378880340E-01
54  5.3000000000000E-01  1.2157534232819E+00 -2.0170782116723E-01
55  5.4000000000000E-01  1.2491371082401E+00 -2.3832031200286E-01
56  5.5000000000000E-01  1.2795031822770E+00 -2.6980491546441E-01
57  5.6000000000000E-01  1.3064522195885E+00 -2.9539345794758E-01
58  5.7000000000000E-01  1.3296253811212E+00 -3.1439904658015E-01
59  5.8000000000000E-01  1.3487104254463E+00 -3.2622802440424E-01
60  5.9000000000000E-01  1.3634470496692E+00 -3.3039057619915E-01
61  6.0000000000000E-01  1.3736314721254E+00 -3.2650980842280E-01
62  6.1000000000000E-01  1.3791201797183E+00 -3.1432914912280E-01
63  6.2000000000000E-01  1.3798327751094E+00 -2.9371793855844E-01
64  6.3000000000000E-01  1.3757538724046E+00 -2.6467510831696E-01
65  6.4000000000000E-01  1.3669340042844E+00 -2.2733087549496E-01
66  6.5000000000000E-01  1.3534895184925E+00 -1.8194640862373E-01
67  6.6000000000000E-01  1.3356014569998E+00 -1.2891145298687E-01
68  6.7000000000000E-01  1.3135134267634E+00 -6.8739934343458E-02
69  6.8000000000000E-01  1.2875284865699E+00 -2.0635913528760E-03
70  6.9000000000000E-01  1.2580050897485E+00  7.0376282283303E-02
71  7.0000000000000E-01  1.2253521373245E+00  1.4773887526186E-01
72  7.1000000000000E-01  1.1900232102370E+00  2.2909553681160E-01
73  7.2000000000000E-01  1.1525100623349E+00  3.1344293037667E-01
74  7.3000000000000E-01  1.1133354677992E+00  3.9971747380163E-01
75  7.4000000000000E-01  1.0730455272184E+00  4.8681085579286E-01
76  7.5000000000000E-01  1.0322015456066E+00  5.7358640032135E-01
77  7.6000000000000E-01  9.9137160304444E-01  6.5889603588829E-01
78  7.7000000000000E-01  9.5112194422424E-01  7.4159761543716E-01
79  7.8000000000000E-01  9.1200831689868E-01  8.2057232536352E-01
80  7.9000000000000E-01  8.7456739098871E-01  8.9474191867664E-01
81  8.0000000000000E-01  8.3930838987396E-01  9.6308550798624E-01
82  8.1000000000000E-01  8.0670506315244E-01  1.0246556586331E+00
83  8.2000000000000E-01  7.7718812593722E-01  1.0785935309179E+00
84  8.3000000000000E-01  7.5113828361238E-01  1.1241428328918E+00
85  8.4000000000000E-01  7.2887995297488E-01  1.1606623613975E+00
86  8.5000000000000E-01  7.1067578095760E-01  1.1876369287640E+00
87  8.6000000000000E-01  6.9672205079535E-01  1.2046864954849E+00
88  8.7000000000000E-01  6.8714505272453E-01  1.2115733550215E+00
89  8.8000000000000E-01  6.8199848228166E-01  1.2082072451964E+00
90  8.9000000000000E-01  6.8126191419169E-01  1.1946482910617E+00
91  9.0000000000000E-01  6.8484038393612E-01  1.1711077161981E+00
92  9.1000000000000E-01  6.9256509259794E-01  1.1379462926439E+00
93  9.2000000000000E-01  7.0419523374319E-01  1.0956705335752E+00
94  9.3000000000000E-01  7.1942092416909E-01  1.0449266669475E+00
95  9.4000000000000E-01  7.3786720358090E-01  9.8649246205301E-01
96  9.5000000000000E-01  7.5909905191031E-01  9.2126701383146E-01
97  9.6000000000000E-01  7.8262735730572E-01  8.5025862129498E-01
98  9.7000000000000E-01  8.0791575304875E-01  7.7457092610360E-01
99  9.8000000000000E-01  8.3438822801496E-01  6.9538750469512E-01
100  9.9000000000000E-01  8.6143740300515E-01  6.1395513201236E-01
101  1.0000000000000E+00  8.8843335452614E-01  5.3156595638471E-01
102  1.0100000000000E+00  9.1473285856593E-01  4.4953884316993E-01
103  1.0200000000000E+00  9.3968891973404E-01  3.6920015905071E-01
104  1.0300000000000E+00  9.6266044593707E-01  2.9186427918353E-01
105  1.0400000000000E+00  9.8302192563365E-01  2.1881410551049E-01
106  1.0500000000000E+00  1.0001729637055E+00  1.5128188638377E-01
107  1.0600000000000E+00  1.0135475331334E+00  9.0430625133921E-02
108  1.0700000000000E+00  1.0226228029633E+00  3.7336358372804E-02
109  1.0800000000000E+00  1.0269274084514E+00 -7.0284262631576E-03
110  1.0900000000000E+00  1.0260490367338E+00 -4.1809978453377E-02
111  1.1000000000000E+00  1.0196412107341E+00 -6.6286844197510E-02
112  1.1100000000000E+00  1.0074291652438E+00 -7.9881582879305E-02
113  1.1200000000000E+00  9.8921472192011E-01 -8.2170455757601E-02
114  1.1300000000000E+00  9.6488008429393E-01 -7.2890928350544E-02
115  1.1400000000000E+00  9.3439048940535E-01 -5.1946860600894E-02
116  1.1500000000000E+00  8.9779566933149E-01 -1.9411292409631E-02
117  1.1600000000000E+00  8.5523009319780E-01  2.4473232843709E-02
118  1.1700000000000E+00  8.0691197825301E-01  7.9296827815293E-02
119  1.1800000000000E+00  7.5314107668001E-01  1.4448688822370E-01
120  1.1900000000000E+00  6.9429526308575E-01  2.1931513498063E-01
121  1.2000000000000E+00  6.3082596541489E-01  3.0290698310002E-01
122  1.2100000000000E+00  5.6325249945025E-01  3.9425311393499E-01
123  1.2200000000000E+00  4.9215538356349E-01  4.9222309404213E-01
124  1.2300000000000E+00  4.1816872584787E-01  5.9558085282311E-01
125  1.2400000000000E+00  3.4197178998388E-01  7.0300180248686E-01
126  1.2500000000000E+00  2.6427985879466E-01  8.1309135854095E-01
127  1.2600000000000E+00  1.8583452544503E-01  9.2440459695275E-01
128  1.2700000000000E+00  1.0739355129214E-01  1.0354667659891E+00
129  1.2800000000000E+00  2.9720436427899E-02  1.1447943567074E+00
130  1.2900000000000E+00 -4.6426146112784E-02  1.2509164262857E+00
131  1.3000000000000E+00 -1.2030289883880E-01  1.3523958631808E+00
132  1.3100000000000E+00 -1.9119227691196E-01  1.4478502824249E+00
133  1.3200000000000E+00 -2.5841254167156E-01  1.5359722433357E+00
134  1.3300000000000E+00 -3.2132734249832E-01  1.6155484904637E+00
135  1.3400000000000E+00 -3.7935468527702E-01  1.6854779315984E+00
136  1.3500000000000E+00 -4.3197515415209E-01  1.7447880838964E+00
137  1.3600000000000E+00 -4.7873926376958E-01  1.7926497406018E+00
138  1.3700000000000E+00 -5.1927383148893E-01  1.8283896358510E+00
139  1.3800000000000E+00 -5.5328727305359E-01  1.8515009135317E+00
140  1.3900000000000E+00 -5.8057374063652E-01  1.8616512375147E+00
141  1.4000000000000E+00 -6.0101603895227E-01  1.8586884146308E+00
142  1.4100000000000E+00 -6.1458727278368E-01  1.8426434375987E+00
143  1.4200000000000E+00 -6.2135119776232E-01  1.8137308926083E+00
144  1.4300000000000E+00 -6.2146126512555E-01  1.7723467145478E+00
145  1.4400000000000E+00 -6.1515837030139E-01  1.7190633116268E+00
146  1.4500000000000E+00 -6.0276733419847E-01  1.6546221196877E+00
147  1.4600000000000E+00 -5.8469216467888E-01  1.5799236841647E+00
148  1.4700000000000E+00 -5.6141016367849E-01  1.4960154040594E+00
149  1.4800000000000E+00 -5.3346496249308E-01  1.4040771068106E+00
150  1.4900000000000E+00 -5.0145858359230E-01  1.3054046549829E+00
151  1.5000000000000E+00 -4.6604264177722E-01  1.2013918149205E+00
152  1.5100000000000E+00 -4.2790881031946E-01  1.0935106434203E+00
153  1.5200000000000E+00 -3.8777868866866E-01  9.8329067058617E-01
154  1.5300000000000E+00 -3.4639321730919E-01  8.7229717516542E-01
155  1.5400000000000E+00 -3.0450179218911E-01  7.6210886244616E-01
156  1.5500000000000E+00 -2.6285123620012E-01  6.5429526466169E-01
157  1.5600000000000E+00 -2.2217478381261E-01  5.5039418331156E-01
158  1.5700000000000E+00 -1.8318125029794E-01  4.5188951317647E-01
159  1.5800000000000E+00 -1.4654355509268E-01  3.6018840849930E-01
160  1.5900000000000E+00 -1.1288879549186E-01  2.7660113406390E-01
161  1.6000000000000E+00 -8.2793853805720E-02  2.0232868913569E-01
162  1.6100000000000E+00 -5.6771959798649E-02  1.3843813803161E-01
163  1.6200000000000E+00 -3.5264935447334E-02  8.5847031056837E-02
164  1.6300000000000E+00 -1.8641903171948E-02  4.5323488912827E-02
165  1.6400000000000E+00 -7.1374366010344E-03  1.7338561918596E-02
166  1.6500000000000E+00 -1.1534531599336E-03  2.8007203996748E-03
167  1.6600000000000E+00  1.3232731995651E-04 -3.2124254888531E-04
168  1.6700000000000E+00 -3.9227635032864E-05  9.5230769573775E-05
169  1.68  0. -0.
170  1.69  0. -0.
171  1.70  0.  0.
172  1.71  0.  0.
173  1.72  0.  0.
174  1.73  0.  0.
175  1.74  0.  0.
176  1.75  0.  0.
177  1.76  0.  0.
178  1.77  0.  0.
179  1.78  0.  0.
180  1.79  0.  0.
181  1.80  0.  0.
182  1.81  0.  0.
183  1.82  0.  0.
184  1.83  0.  0.
185  1.84  0.  0.
186  1.85  0.  0.
187  1.86  0.  0.
188  1.87  0.  0.
189  1.88  0.  0.
190  1.89  0.  0.
191  1.90  0.  0.
192  1.91  0.  0.
193  1.92  0.  0.
194  1.93  0.  0.
195  1.94  0.  0.
196  1.95  0.  0.
197  1.96  0.  0.
198  1.97  0.  0.
199  1.98  0.  0.
200  1.99  0.  0.
201  2.00  0.  0.
202  2.01  0.  0.
203  2.02  0.  0.
204  2.03  0.  0.
205  2.04  0.  0.
206  2.05  0.  0.
207  2.06  0.  0.
208  2.07  0.  0.
209  2.08  0.  0.
210  2.09  0.  0.
211  2.10  0.  0.
212  2.11  0.  0.
213  2.12  0.  0.
214  2.13  0.  0.
215  2.14  0.  0.
216  2.15  0.  0.
217  2.16  0.  0.
218  2.17  0.  0.
219  2.18  0.  0.
220  2.19  0.  0.
221  2.20  0.  0.
222  2.21  0.  0.
223  2.22  0.  0.
224  2.23  0.  0.
225  2.24  0.  0.
226  2.25  0.  0.
227  2.26  0.  0.
228  2.27  0.  0.
229  2.28  0.  0.
230  2.29  0.  0.
231  2.30  0.  0.
232  2.31  0.  0.
233  2.32  0.  0.
234  2.33  0.  0.
235  2.34  0.  0.
236  2.35  0.  0.
237  2.36  0.  0.
238  2.37  0.  0.
239  2.38  0.  0.
240  2.39  0.  0.
241  2.40  0.  0.
242  2.41  0.  0.
243  2.42  0.  0.
244  2.43  0.  0.
245  2.44  0.  0.
246  2.45  0.  0.
247  2.46  0.  0.
248  2.47  0.  0.
249  2.48  0.  0.
250  2.49  0.  0.
251  2.50  0.  0.
252  2.51  0.  0.
253  2.52  0.  0.
254  2.53  0.  0.
255  2.54  0.  0.
256  2.55  0.  0.
257  2.56  0.  0.
258  2.57  0.  0.
259  2.58  0.  0.
260  2.59  0.  0.
261  2.60  0.  0.
262  2.61  0.  0.
263  2.62  0.  0.
264  2.63  0.  0.
265  2.64  0.  0.
266  2.65  0.  0.
267  2.66  0.  0.
268  2.67  0.  0.
269  2.68  0.  0.
270  2.69  0.  0.
271  2.70  0.  0.
272  2.71  0.  0.
273  2.72  0.  0.
274  2.73  0.  0.
275  2.74  0.  0.
276  2.75  0.  0.
277  2.76  0.  0.
278  2.77  0.  0.
279  2.78  0.  0.
280  2.79  0.  0.
281  2.80  0.  0.
282  2.81  0.  0.
283  2.82  0.  0.
284  2.83  0.  0.
285  2.84  0.  0.
286  2.85  0.  0.
287  2.86  0.  0.
288  2.87  0.  0.
289  2.88  0.  0.
290  2.89  0.  0.
291  2.90  0.  0.
292  2.91  0.  0.
293  2.92  0.  0.
294  2.93  0.  0.
295  2.94  0.  0.
296  2.95  0.  0.
297  2.96  0.  0.
298  2.97  0.  0.
299  2.98  0.  0.
300  2.99  0.  0.
301  3.00  0.  0.
302  3.01  0.  0.
303  3.02  0.  0.
304  3.03  0.  0.
305  3.04  0.  0.
306  3.05  0.  0.
307  3.06  0.  0.
308  3.07  0.  0.
309  3.08  0.  0.
310  3.09  0.  0.
311  3.10  0.  0.
312  3.11  0.  0.
313  3.12  0.  0.
314  3.13  0.  0.
315  3.14  0.  0.
316  3.15  0.  0.
317  3.16  0.  0.
318  3.17  0.  0.
319  3.18  0.  0.
320  3.19  0.  0.
321  3.20  0.  0.
322  3.21  0.  0.
323  3.22  0.  0.
324  3.23  0.  0.
325  3.24  0.  0.
326  3.25  0.  0.
327  3.26  0.  0.
328  3.27  0.  0.
329  3.28  0.  0.
330  3.29  0.  0.
331  3.30  0.  0.
332  3.31  0.  0.
333  3.32  0.  0.
334  3.33  0.  0.
335  3.34  0.  0.
336  3.35  0.  0.
337  3.36  0.  0.
338  3.37  0.  0.
339  3.38  0.  0.
340  3.39  0.  0.
341  3.40  0.  0.
342  3.41  0.  0.
343  3.42  0.  0.
344  3.43  0.  0.
345  3.44  0.  0.
346  3.45  0.  0.
347  3.46  0.  0.
348  3.47  0.  0.
349  3.48  0.  0.
350  3.49  0.  0.
351  3.50  0.  0.
352  3.51  0.  0.
353  3.52  0.  0.
354  3.53  0.  0.
355  3.54  0.  0.
356  3.55  0.  0.
357  3.56  0.  0.
358  3.57  0.  0.
359  3.58  0.  0.
360  3.59  0.  0.
361  3.60  0.  0.
362  3.61  0.  0.
363  3.62  0.  0.
364  3.63  0.  0.
365  3.64  0.  0.
366  3.65  0.  0.
367  3.66  0.  0.
368  3.67  0.  0.
369  3.68  0.  0.
370  3.69  0.  0.
371  3.70  0.  0.
372  3.71  0.  0.
373  3.72  0.  0.
374  3.73  0.  0.
375  3.74  0.  0.
376  3.75  0.  0.
377  3.76  0.  0.
378  3.77  0.  0.
379  3.78  0.  0.
380  3.79  0.  0.
381  3.80  0.  0.
382  3.81  0.  0.
383  3.82  0.  0.
384  3.83  0.  0.
385  3.84  0.  0.
386  3.85  0.  0.
387  3.86  0.  0.
388  3.87  0.  0.
389  3.88  0.  0.
390  3.89  0.  0.
391  3.90  0.  0.
392  3.91  0.  0.
393  3.92  0.  0.
394  3.93  0.  0.
395  3.94  0.  0.
396  3.95  0.  0.
397  3.96  0.  0.
398  3.97  0.  0.
399  3.98  0.  0.
400  3.99  0.  0.
401  4.00  0.  0.
402  4.01  0.  0.
403  4.02  0.  0.
404  4.03  0.  0.
405  4.04  0.  0.
406  4.05  0.  0.
407  4.06  0.  0.
408  4.07  0.  0.
409  4.08  0.  0.
410  4.09  0.  0.
411  4.10  0.  0.
412  4.11  0.  0.
413  4.12  0.  0.
414  4.13  0.  0.
415  4.14  0.  0.
416  4.15  0.  0.
417  4.16  0.  0.
418  4.17  0.  0.
419  4.18  0.  0.
420  4.19  0.  0.
421  4.20  0.  0.
422  4.21  0.  0.
423  4.22  0.  0.
424  4.23  0.  0.
425  4.24  0.  0.
426  4.25  0.  0.
427  4.26  0.  0.
428  4.27  0.  0.
429  4.28  0.  0.
430  4.29  0.  0.
431  4.30  0.  0.
432  4.31  0.  0.
433  4.32  0.  0.
434  4.33  0.  0.
435  4.34  0.  0.
436  4.35  0.  0.
437  4.36  0.  0.
438  4.37  0.  0.
439  4.38  0.  0.
440  4.39  0.  0.
441  4.40  0.  0.
442  4.41  0.  0.
443  4.42  0.  0.
444  4.43  0.  0.
445  4.44  0.  0.
446  4.45  0.  0.
447  4.46  0.  0.
448  4.47  0.  0.
449  4.48  0.  0.
450  4.49  0.  0.
451  4.50  0.  0.
452  4.51  0.  0.
453  4.52  0.  0.
454  4.53  0.  0.
455  4.54  0.  0.
456  4.55  0.  0.
457  4.56  0.  0.
458  4.57  0.  0.
459  4.58  0.  0.
460  4.59  0.  0.
461  4.60  0.  0.
462  4.61  0.  0.
463  4.62  0.  0.
464  4.63  0.  0.
465  4.64  0.  0.
466  4.65  0.  0.
467  4.66  0.  0.
468  4.67  0.  0.
469  4.68  0.  0.
470  4.69  0.  0.
471  4.70  0.  0.
472  4.71  0.  0.
473  4.72  0.  0.
474  4.73  0.  0.
475  4.74  0.  0.
476  4.75  0.  0.
477  4.76  0.  0.
478  4.77  0.  0.
479  4.78  0.  0.
480  4.79  0.  0.
481  4.80  0.  0.
482  4.81  0.  0.
483  4.82  0.  0.
484  4.83  0.  0.
485  4.84  0.  0.
486  4.85  0.  0.
487  4.86  0.  0.
488  4.87  0.  0.
489  4.88  0.  0.
490  4.89  0.  0.
491  4.90  0.  0.
492  4.91  0.  0.
493  4.92  0.  0.
494  4.93  0.  0.
495  4.94  0.  0.
496  4.95  0.  0.
497  4.96  0.  0.
498  4.97  0.  0.
499  4.98  0.  0.
500  4.99  0.  0.
501  5.00  0.  0.
502  5.01  0.  0.
503  5.02  0.  0.
504  5.03  0.  0.
505  5.04  0.  0.
506  5.05  0.  0.
507  5.06  0.  0.
508  5.07  0.  0.
509  5.08  0.  0.
510  5.09  0.  0.
511  5.10  0.  0.
512  5.11  0.  0.
513  5.12  0.  0.
514  5.13  0.  0.
515  5.14  0.  0.
516  5.15  0.  0.
517  5.16  0.  0.
518  5.17  0.  0.
519  5.18  0.  0.
520  5.19  0.  0.
521  5.20  0.  0.
522  5.21  0.  0.
523  5.22  0.  0.
524  5.23  0.  0.
525  5.24  0.  0.
526  5.25  0.  0.
527  5.26  0.  0.
528  5.27  0.  0.
529  5.28  0.  0.
530  5.29  0.  0.
531  5.30  0.  0.
532  5.31  0.  0.
533  5.32  0.  0.
534  5.33  0.  0.
535  5.34  0.  0.
536  5.35  0.  0.
537  5.36  0.  0.
538  5.37  0.  0.
539  5.38  0.  0.
540  5.39  0.  0.
541  5.40  0.  0.
542  5.41  0.  0.
543  5.42  0.  0.
544  5.43  0.  0.
545  5.44  0.  0.
546  5.45  0.  0.
547  5.46  0.  0.
548  5.47  0.  0.
549  5.48  0.  0.
550  5.49  0.  0.
551  5.50  0.  0.
552  5.51  0.  0.
553  5.52  0.  0.
554  5.53  0.  0.
555  5.54  0.  0.
556  5.55  0.  0.
557  5.56  0.  0.
558  5.57  0.  0.
559  5.58  0.  0.
560  5.59  0.  0.
561  5.60  0.  0.
562  5.61  0.  0.
563  5.62  0.  0.
564  5.63  0.  0.
565  5.64  0.  0.
566  5.65  0.  0.
567  5.66  0.  0.
568  5.67  0.  0.
569  5.68  0.  0.
570  5.69  0.  0.
571  5.70  0.  0.
572  5.71  0.  0.
573  5.72  0.  0.
574  5.73  0.  0.
575  5.74  0.  0.
576  5.75  0.  0.
577  5.76  0.  0.
578  5.77  0.  0.
579  5.78  0.  0.
580  5.79  0.  0.
581  5.80  0.  0.
582  5.81  0.  0.
583  5.82  0.  0.
584  5.83  0.  0.
585  5.84  0.  0.
586  5.85  0.  0.
587  5.86  0.  0.
588  5.87  0.  0.
589  5.88  0.  0.
590  5.89  0.  0.
591  5.90  0.  0.
592  5.91  0.  0.
593  5.92  0.  0.
594  5.93  0.  0.
595  5.94  0.  0.
596  5.95  0.  0.
597  5.96  0.  0.
598  5.97  0.  0.
599  5.98  0.  0.
600  5.99  0.  0.
1                         5.4462656173067E+00  1.0945656899158E+00
1  0.0000000000000E+00  1.7556971473875E-08 -1.6315562983982E-08
2  1.0000000000000E-02  1.9188767485122E-03 -1.3105638979036E-03
3  2.0000000000000E-02  7.6416899762961E-03 -5.2122200336828E-03
4  3.0000000000000E-02  1.7067585370975E-02 -1.1615408300908E-02
5  4.0000000000000E-02  3.0030451478825E-02 -2.0372674372987E-02
6  5.0000000000000E-02  4.6301853226980E-02 -3.1281355826211E-02
7  6.0000000000000E-02  6.5595069288224E-02 -4.4087277961660E-02
8  7.0000000000000E-02  8.7570165089221E-02 -5.8489395863487E-02
9  8.0000000000000E-02  1.1184001570605E-01 -7.4145302915557E-02
10  9.0000000000000E-02  1.3797717673781E-01 -9.0677511004845E-02
11  1.0000000000000E-01  1.6552148676543E-01 -1.0768039421815E-01
12  1.1000000000000E-01  1.9398827242738E-01 -1.2472767621278E-01
13  1.2000000000000E-01  2.2287701668522E-01 -1.4138033180720E-01
14  1.3000000000000E-01  2.5168034268421E-01 -1.5719476585767E-01
15  1.4000000000000E-01  2.7989315987501E-01 -1.7173112728876E-01
16  1.5000000000000E-01  3.0702181585084E-01 -1.8456161332239E-01
17  1.6000000000000E-01  3.3259309672813E-01 -1.9527861855221E-01
18  1.7000000000000E-01  3.5616292087424E-01 -2.0350258555280E-01
19  1.8000000000000E-01  3.7732457533768E-01 -2.0888941816869E-01
20  1.9000000000000E-01  3.9571635139732E-01 -2.1113732543100E-01
21  2.0000000000000E-01  4.1102844510941E-01 -2.0999297309524E-01
22  2.1000000000000E-01  4.2300900044791E-01 -2.0525683094115E-01
23  2.2000000000000E-01  4.3146918642150E-01 -1.9678761704816E-01
24  2.3000000000000E-01  4.3628721519101E-01 -1.8450575505071E-01
25  2.4000000000000E-01  4.3741122545706E-01 -1.6839577664897E-01
26  2.5000000000000E-01  4.3486097396352E-01 -1.4850761914120E-01
27  2.6000000000000E-01  4.2872829757087E-01 -1.2495678617130E-01
28  2.7000000000000E-01  4.1917632868030E-01 -9.7923358949895E-02
29  2.8000000000000E-01  4.0643746750566E-01 -6.7649864599237E-02
30  2.9000000000000E-01  3.9081013546153E-01 -3.4438027673320E-02
31  3.0000000000000E-01  3.7265435442388E-01  1.3555500033910E-03
32  3.1000000000000E-01  3.5238621649056E-01  3.9324717568788E-02
33  3.2000000000000E-01  3.3047132779569E-01  7.9020030283103E-02
34  3.3000000000000E-01  3.0741732760370E-01  1.1995583416283E-01
35  3.4000000000000E-01  2.8376560003018E-01  1.6161806782731E-01
36  3.5000000000000E-01  2.6008231003898E-01  2.0347265624192E-01
37  3.6000000000000E-01  2.3694890760497E-01  2.4497435996517E-01
38  3.7000000000000E-01  2.1495225389992E-01  2.8557593460415E-01
39  3.8000000000000E-01  1.9467453087899E-01  3.2473744861276E-01
40  3.9000000000000E-01  1.7668310058234E-01  3.6193560345565E-01
41  4.0000000000000E-01  1.6152048272219E-01  3.9667289859046E-01
42  4.1000000000000E-01  1.4969461864868E-01  4.2848648473850E-01
43  4.2000000000000E-01  1.4166958656706E-01  4.5695655251967E-01
44  4.3000000000000E-01  1.3785692694756E-01  4.8171410968411E-01
45  4.4000000000000E-01  1.3860772850613E-01  5.0244800879951E-01
46  4.5000000000000E-01  1.4420561405833E-01  5.1891109822785E-01
47  4.6000000000000E-01  1.5486075212074E-01  5.3092538239011E-01
48  4.7000000000000E-01  1.7070500455480E-01  5.3838609247518E-01
49  4.8000000000000E-01  1.9178830305103E-01  5.4126458567067E-01
50  4.9000000000000E-01  2.1807632810485E-01  5.3961000941882E-01
51  5.0000000000000E-01  2.4944954363478E-01  5.3354968684475E-01
52  5.1000000000000E-01  2.8570361885711E-01  5.2328820005855E-01
53  5.2000000000000E-01  3.2655124679744E-01  5.0910516917370E-01
54  5.3000000000000E-01  3.7162534623886E-01  4.9135174627424E-01
55  5.4000000000000E-01  4.2048361133827E-01  4.7044586486015E-01
56  5.5000000000000E-01  4.7261435094789E-01  4.4686630615864E-01
57  5.6000000000000E-01  5.2744353821658E-01  4.2114566376923E-01
58  5.7000000000000E-01  5.8434297066341E-01  3.9386230708181E-01
59  5.8000000000000E-01  6.4263942194939E-01  3.6563146145285E-01
60  5.9000000000000E-01  7.0162464933548E-01  3.3709553895145E-01
61  6.0000000000000E-01  7.6056610559627E-01  3.0891386732210E-01
62  6.1000000000000E-01  8.1871819121749E-01  2.8175197641419E-01
63  6.2000000000000E-01  8.7533387226757E-01  2.5627061049250E-01
64  6.3000000000000E-01  9.2967648158546E-01  2.3311464139610E-01
65  6.4000000000000E-01  9.8103151601577E-01  2.1290206132642E-01
66  6.5000000000000E-01  1.0287182404488E+00  1.9621323502951E-01
67  6.6000000000000E-01  1.0721009104464E+00  1.8358058924927E-01
68  6.7000000000000E-01  1.1105994292599E+00  1.7547891256933E-01
69  6.8000000000000E-01  1.1436992620437E+00  1.7231643117784E-01
70  6.9000000000000E-01  1.1709604399421E+00  1.7442681577424E-01
71  7.0000000000000E-01  1.1920254993567E+00  1.8206226192631E-01
72  7.1000000000000E-01  1.2066262169062E+00  1.9538777085871E-01
73  7.2000000000000E-01  1.2145890181519E+00  2.1447674012795E-01
74  7.3000000000000E-01  1.2158389578285E+00  2.3930795417170E-01
75  7.4000000000000E-01  1.2104021907952E+00  2.6976404359677E-01
76  7.5000000000000E-01  1.1984068758854E+00  3.0563145961139E-01
77  7.6000000000000E-01  1.1800824789387E+00  3.4660198655334E-01
78  7.7000000000000E-01  1.1557574661733E+00  3.9227579137403E-01
79  7.8000000000000E-01  1.1258554043194E+00  4.4216598458827E-01
80  7.9000000000000E-01  1.0908895091892E+00  4.9570464296658E-01
81  8.0000000000000E-01  1.0514557092103E+00  5.5225022051825E-01
82  8.1000000000000E-01  1.0082243145070E+00  6.1109625146430E-01
83  8.2000000000000E-01  9.6193040498700E-01  6.7148122730123E-01
84  8.3000000000000E-01  9.1336307221582E-01  7.3259951005975E-01
85  8.4000000000000E-01  8.6335366929116E-01  7.9361312579776E-01
86  8.5000000000000E-01  8.1276324013696E-01  8.5366426653820E-01
87  8.6000000000000E-01  7.6246931434150E-01  9.1188831553961E-01
88  8.7000000000000E-01  7.1335226560757E-01  9.6742720020575E-01
89  8.8000000000000E-01  6.6628144085806E-01  1.0194428692944E+00
90  8.9000000000000E-01  6.2210127287848E-01  1.0671306865228E+00
91  9.0000000000000E-01  5.8161759196280E-01  1.1097325312922E+00
92  9.1000000000000E-01  5.4558435128898E-01  1.1465493991226E+00
93  9.2000000000000E-01  5.1469097666944E-01  1.1769532994986E+00
94  9.3000000000000E-01  4.8955054393359E-01  1.2003982571418E+00
95  9.4000000000000E-01  4.7068897658933E-01  1.2164302341398E+00
96  9.5000000000000E-01  4.5853544271485E-01  1.2246958047315E+00
97  9.6000000000000E-01  4.5341411343828E-01  1.2249494316875E+00
98  9.7000000000000E-01  4.5553742609834E-01  1.2170592128856E+00
99  9.8000000000000E-01  4.6500097352934E-01  1.2010109885867E+00
100  9.9000000000000E-01  4.8178011717946E-01  1.1769107237611E+00
101  1.0000000000000E+00  5.0572839631234E-01  1.1449851052314E+00
102  1.0100000000000E+00  5.3657777872925E-01  1.1055803200294E+00
103  1.0200000000000E+00  5.7394077070823E-01  1.0591590087780E+00
104  1.0300000000000E+00  6.1731437555527E-01  1.0062954157490E+00
105  1.0400000000000E+00  6.6608586179401E-01  9.4766878502280E-01
106  1.0500000000000E+00  7.1954027400171E-01  8.8405507948566E-01
107  1.0600000000000E+00  7.7686959200937E-01  8.1631712586330E-01
108  1.0700000000000E+00  8.3718341815658E-01  7.4539331409669E-01
109  1.0800000000000E+00  8.9952104783871E-01  6.7228500280851E-01
110  1.0900000000000E+00  9.6286475612619E-01  5.9804280398085E-01
111  1.1000000000000E+00  1.0261541131896E+00  5.2375193886982E-01
112  1.1100000000000E+00  1.0883011238244E+00  4.5051687342852E-01
113  1.1200000000000E+00  1.1482059719974E+00  3.7944545466604E-01
114  1.1300000000000E+00  1.2047731400992E+00  3.1163277936618E-01
115  1.1400000000000E+00  1.2569276648304E+00  2.4814503311363E-01
116  1.1500000000000E+00  1.3036312874117E+00  1.9000354058618E-01
117  1.1600000000000E+00  1.3438982552329E+00  1.3816926745313E-01
118  1.1700000000000E+00  1.3768105351892E+00  9.3528009931402E-02
119  1.1800000000000E+00  1.4015322056911E+00  5.6876500216645E-02
120  1.1900000000000E+00  1.4173228047612E+00  2.8909644543862E-02
121  1.2000000000000E+00  1.4235494253817E+00  1.0209095930644E-02
122  1.2100000000000E+00  1.4196973664112E+00  1.2333456322437E-03
123  1.2200000000000E+00  1.4053791674770E+00  2.3094964776851E-03
124  1.2300000000000E+00  1.3803418790913E+00  1.3626857751548E-02
125  1.2400000000000E+00  1.3444724446026E+00  3.5232475357476E-02
126  1.2500000000000E+00  1.2978010977986E+00  6.7028683355271E-02
127  1.2600000000000E+00  1.2405027090342E+00  1.0877273357362E-01
128  1.2700000000000E+00  1.1728960429460E+00  1.6007852960502E-01
129  1.2800000000000E+00  1.0954409216399E+00  2.2042046056880E-01
130  1.2900000000000E+00  1.0087333186193E+00  2.8913929867212E-01
131  1.3000000000000E+00  9.1349843973059E-01  3.6545009373022E-01
132  1.3100000000000E+00  8.1058187774875E-01  4.4845196770325E-01
133  1.3200000000000E+00  7.0093895663396E-01  5.3713968325782E-01
134  1.3300000000000E+00  5.8562240917586E-01  6.3041683312358E-01
135  1.3400000000000E+00  4.6576855748804E-01  7.2711047181442E-01
136  1.3500000000000E+00  3.4258218914251E-01  8.2598698858112E-01
137  1.3600000000000E+00  2.1732034239299E-01  9.2576900050809E-01
138  1.3700000000000E+00  9.1275231379423E-02  1.0251530279882E+00
139  1.3800000000000E+00 -3.4243443633876E-02  1.1228277014742E+00
140  1.3900000000000E+00 -1.5792654539893E-01  1.2174922387362E+00
141  1.4000000000000E+00 -2.7848364582863E-01  1.3078749259765E+00
142  1.4100000000000E+00 -3.9466100391886E-01  1.3927513342264E+00
143  1.4200000000000E+00 -5.0525911130190E-01  1.4709620044782E+00
144  1.4300000000000E+00 -6.0914954631223E-01  1.5414293409795E+00
145  1.4400000000000E+00 -7.0529088638083E-01  1.6031734619992E+00
146  1.4500000000000E+00 -7.9274344131471E-01  1.6553267710460E+00
147  1.4600000000000E+00 -8.7068258631726E-01  1.6971470287275E+00
148  1.4700000000000E+00 -9.3841049330366E-01  1.7280287260140E+00
149  1.4800000000000E+00 -9.9536608186909E-01  1.7475125833158E+00
150  1.4900000000000E+00 -1.0411330367731E+00  1.7552930260800E+00
151  1.5000000000000E+00 -1.0754457667268E+00  1.7512235162821E+00
152  1.5100000000000E+00 -1.0981932092153E+00  1.7353196498209E+00
153  1.5200000000000E+00 -1.1094204174470E+00  1.7077599618065E+00
154  1.5300000000000E+00 -1.1093278980296E+00  1.6688844148071E+00
155  1.5400000000000E+00 -1.0982687010220E+00  1.6191905786593E+00
156  1.5500000000000E+00 -1.0767432971449E+00  1.5593275440088E+00
157  1.5600000000000E+00 -1.0453923096468E+00  1.4900876448150E+00
158  1.5700000000000E+00 -1.0049872001203E+00  1.4123960971364E+00
159  1.5800000000000E+00 -9.5641903800746E-01  1.3272986921277E+00
160  1.5900000000000E+00 -9.0068551196324E-01  1.2359477097025E+00