Ga    ONCVPSP-4.0.1  r_core=   1.85556   1.80088   2.60951
31.0000      3.0000      220329    zatom,zion,pspd
8      11   2     4   600     0    pspcod,pspxc,lmax,lloc,mmax,r2well
5.99000000  0.50000000  0.00000000    rchrg fchrg qchrg
2     2     2     0     0    nproj
1     1           extension_switch
0                         6.1921385086514E+00  6.1062778278792E-01
1  0.0000000000000E+00  1.2417761263706E-11 -2.5582411189440E-11
2  1.0000000000000E-02  2.5756483523139E-02 -1.3244800056221E-02
3  2.0000000000000E-02  5.1511830594563E-02 -2.6480714164593E-02
4  3.0000000000000E-02  7.7264837465670E-02 -3.9698790712844E-02
5  4.0000000000000E-02  1.0301416623738E-01 -5.2889947442750E-02
6  5.0000000000000E-02  1.2875827888991E-01 -6.6044907827777E-02
7  6.0000000000000E-02  1.5449537262971E-01 -7.9154139473110E-02
8  7.0000000000000E-02  1.8022331697795E-01 -9.2207795181733E-02
9  8.0000000000000E-02  2.0593959301224E-01 -1.0519565730462E-01
10  9.0000000000000E-02  2.3164123515838E-01 -1.1810708596124E-01
11  1.0000000000000E-01  2.5732477591010E-01 -1.3093097167946E-01
12  1.1000000000000E-01  2.8298619383448E-01 -1.4365569296127E-01
13  1.2000000000000E-01  3.0862086519698E-01 -1.5626907923310E-01
14  1.3000000000000E-01  3.3422351951464E-01 -1.6875837958783E-01
15  1.4000000000000E-01  3.5978819931803E-01 -1.8111023766958E-01
16  1.5000000000000E-01  3.8530822437306E-01 -1.9331067299323E-01
17  1.6000000000000E-01  4.1077616058252E-01 -2.0534506892871E-01
18  1.7000000000000E-01  4.3618379375422E-01 -2.1719816751562E-01
19  1.8000000000000E-01  4.6152210838934E-01 -2.2885407120838E-01
20  1.9000000000000E-01  4.8678127160940E-01 -2.4029625158507E-01
21  2.0000000000000E-01  5.1195062230536E-01 -2.5150756498645E-01
22  2.1000000000000E-01  5.3701866555665E-01 -2.6247027498496E-01
23  2.2000000000000E-01  5.6197307233229E-01 -2.7316608151807E-01
24  2.3000000000000E-01  5.8680068445106E-01 -2.8357615645667E-01
25  2.4000000000000E-01  6.1148752474271E-01 -2.9368118531759E-01
26  2.5000000000000E-01  6.3601881231834E-01 -3.0346141477123E-01
27  2.6000000000000E-01  6.6037898282491E-01 -3.1289670554013E-01
28  2.7000000000000E-01  6.8455171352749E-01 -3.2196659023362E-01
29  2.8000000000000E-01  7.0851995303266E-01 -3.3065033561795E-01
30  2.9000000000000E-01  7.3226595543813E-01 -3.3892700877982E-01
31  3.0000000000000E-01  7.5577131866756E-01 -3.4677554660637E-01
32  3.1000000000000E-01  7.7901702672559E-01 -3.5417482797503E-01
33  3.2000000000000E-01  8.0198349558603E-01 -3.6110374802340E-01
34  3.3000000000000E-01  8.2465062240769E-01 -3.6754129385305E-01
35  3.4000000000000E-01  8.4699783775528E-01 -3.7346662101114E-01
36  3.5000000000000E-01  8.6900416048957E-01 -3.7885913009060E-01
37  3.6000000000000E-01  8.9064825498021E-01 -3.8369854279398E-01
38  3.7000000000000E-01  9.1190849028629E-01 -3.8796497681662E-01
39  3.8000000000000E-01  9.3276300094584E-01 -3.9163901892326E-01
40  3.9000000000000E-01  9.5318974901236E-01 -3.9470179561582E-01
41  4.0000000000000E-01  9.7316658697866E-01 -3.9713504082216E-01
42  4.1000000000000E-01  9.9267132123152E-01 -3.9892116007254E-01
43  4.2000000000000E-01  1.0116817756879E+00 -4.0004329067356E-01
44  4.3000000000000E-01  1.0301758552728E+00 -4.0048535743873E-01
45  4.4000000000000E-01  1.0481316089119E+00 -4.0023212358841E-01
46  4.5000000000000E-01  1.0655272917245E+00 -3.9926923648977E-01
47  4.6000000000000E-01  1.0823414261237E+00 -3.9758326797058E-01
48  4.7000000000000E-01  1.0985528615441E+00 -3.9516174900565E-01
49  4.8000000000000E-01  1.1141408325442E+00 -3.9199319864286E-01
50  4.9000000000000E-01  1.1290850150499E+00 -3.8806714710684E-01
51  5.0000000000000E-01  1.1433655805302E+00 -3.8337415308842E-01
52  5.1000000000000E-01  1.1569632479236E+00 -3.7790581530115E-01
53  5.2000000000000E-01  1.1698593331581E+00 -3.7165477845692E-01
54  5.3000000000000E-01  1.1820357961364E+00 -3.6461473388323E-01
55  5.4000000000000E-01  1.1934752850845E+00 -3.5678041507386E-01
56  5.5000000000000E-01  1.2041611781898E+00 -3.4814758852944E-01
57  5.6000000000000E-01  1.2140776224835E+00 -3.3871304030816E-01
58  5.7000000000000E-01  1.2232095699474E+00 -3.2847455876372E-01
59  5.8000000000000E-01  1.2315428108532E+00 -3.1743091400285E-01
60  5.9000000000000E-01  1.2390640043670E+00 -3.0558183464010E-01
61  6.0000000000000E-01  1.2457607064761E+00 -2.9292798247171E-01
62  6.1000000000000E-01  1.2516213953189E+00 -2.7947092572324E-01
63  6.2000000000000E-01  1.2566354940165E+00 -2.6521311155414E-01
64  6.3000000000000E-01  1.2607933911291E+00 -2.5015783852187E-01
65  6.4000000000000E-01  1.2640864588715E+00 -2.3430922971959E-01
66  6.5000000000000E-01  1.2665070692398E+00 -2.1767220730474E-01
67  6.6000000000000E-01  1.2680486082137E+00 -2.0025246912958E-01
68  6.7000000000000E-01  1.2687054882066E+00 -1.8205646817084E-01
69  6.8000000000000E-01  1.2684731589426E+00 -1.6309139543180E-01
70  6.9000000000000E-01  1.2673481169466E+00 -1.4336516695708E-01
71  7.0000000000000E-01  1.2653279138292E+00 -1.2288641556018E-01
72  7.1000000000000E-01  1.2624111635527E+00 -1.0166448781263E-01
73  7.2000000000000E-01  1.2585975488551E+00 -7.9709446786366E-02
74  7.3000000000000E-01  1.2538878270034E+00 -5.7032080974141E-02
75  7.4000000000000E-01  1.2482838350395E+00 -3.3643919739106E-02
76  7.5000000000000E-01  1.2417884946642E+00 -9.5572555640183E-03
77  7.6000000000000E-01  1.2344058168956E+00  1.5214826715734E-02
78  7.7000000000000E-01  1.2261409066157E+00  4.0658413604612E-02
79  7.8000000000000E-01  1.2169999671025E+00  6.6758719570184E-02
80  7.9000000000000E-01  1.2069903046217E+00  9.3500036704448E-02
81  8.0000000000000E-01  1.1961203331280E+00  1.2086567763402E-01
82  8.1000000000000E-01  1.1843995791048E+00  1.4883791199591E-01
83  8.2000000000000E-01  1.1718386865394E+00  1.7739789690220E-01
84  8.3000000000000E-01  1.1584494220096E+00  2.0652560192489E-01
85  8.4000000000000E-01  1.1442446798255E+00  2.3619972923546E-01
86  8.5000000000000E-01  1.1292384871467E+00  2.6639762963915E-01
87  8.6000000000000E-01  1.1134460089627E+00  2.9709521534173E-01
88  8.7000000000000E-01  1.0968835528028E+00  3.2826687038309E-01
89  8.8000000000000E-01  1.0795685730090E+00  3.5988535975958E-01
90  8.9000000000000E-01  1.0615196743857E+00  3.9192173834141E-01
91  9.0000000000000E-01  1.0427566150117E+00  4.2434526076456E-01
92  9.1000000000000E-01  1.0233003079809E+00  4.5712329354346E-01
93  9.2000000000000E-01  1.0031728218146E+00  4.9022123070569E-01
94  9.3000000000000E-01  9.8239737927479E-01  5.2360241429636E-01
95  9.4000000000000E-01  9.6099835428823E-01  5.5722806113253E-01
96  9.5000000000000E-01  9.3900126668150E-01  5.9105719720981E-01
97  9.6000000000000E-01  9.1643277441791E-01  6.2504660117204E-01
98  9.7000000000000E-01  8.9332066302032E-01  6.5915075824965E-01
99  9.8000000000000E-01  8.6969383186275E-01  6.9332182605403E-01
100  9.9000000000000E-01  8.4558227701510E-01  7.2750961358100E-01
101  1.0000000000000E+00  8.2101707033014E-01  7.6166157473106E-01
102  1.0100000000000E+00  7.9603033447203E-01  7.9572281759015E-01
103  1.0200000000000E+00  7.7065521359867E-01  8.2963613063965E-01
104  1.0300000000000E+00  7.4492583942726E-01  8.6334202697349E-01
105  1.0400000000000E+00  7.1887729243452E-01  8.9677880749550E-01
106  1.0500000000000E+00  6.9254555796742E-01  9.2988264395279E-01
107  1.0600000000000E+00  6.6596747707014E-01  9.6258768252962E-01
108  1.0700000000000E+00  6.3918069186522E-01  9.9482616858378E-01
109  1.0800000000000E+00  6.1222358536350E-01  1.0265285929529E+00
110  1.0900000000000E+00  5.8513521561658E-01  1.0576238600939E+00
111  1.1000000000000E+00  5.5795524416862E-01  1.0880394781447E+00
112  1.1100000000000E+00  5.3072385880925E-01  1.1177017708158E+00
113  1.1200000000000E+00  5.0348169067700E-01  1.1465361108296E+00
114  1.1300000000000E+00  4.7626972581308E-01  1.1744671744328E+00
115  1.1400000000000E+00  4.4912921131572E-01  1.2014192163092E+00
116  1.1500000000000E+00  4.2210155629917E-01  1.2273163640170E+00
117  1.1600000000000E+00  3.9522822791400E-01  1.2520829308779E+00
118  1.1700000000000E+00  3.6855064274002E-01  1.2756437460429E+00
119  1.1800000000000E+00  3.4211005391647E-01  1.2979245002602E+00
120  1.1900000000000E+00  3.1594743442769E-01  1.3188521056818E+00
121  1.2000000000000E+00  2.9010335701452E-01  1.3383550678535E+00
122  1.2100000000000E+00  2.6461787123286E-01  1.3563638678552E+00
123  1.2200000000000E+00  2.3953037822849E-01  1.3728113523902E+00
124  1.2300000000000E+00  2.1487950384484E-01  1.3876331294578E+00
125  1.2400000000000E+00  1.9070297072238E-01  1.4007679671012E+00
126  1.2500000000000E+00  1.6703747008858E-01  1.4121581925899E+00
127  1.2600000000000E+00  1.4391853397381E-01  1.4217500892749E+00
128  1.2700000000000E+00  1.2138040861916E-01  1.4294942882599E+00
129  1.2800000000000E+00  9.9455929869871E-02  1.4353461519476E+00
130  1.2900000000000E+00  7.8176401370221E-02  1.4392661464555E+00
131  1.3000000000000E+00  5.7571476391346E-02  1.4412201998594E+00
132  1.3100000000000E+00  3.7669044135651E-02  1.4411800431933E+00
133  1.3200000000000E+00  1.8495121365503E-02  1.4391235311443E+00
134  1.3300000000000E+00  7.3750203874228E-05  1.4350349393954E+00
135  1.3400000000000E+00 -1.7573097053646E-02  1.4289052356229E+00
136  1.3500000000000E+00 -3.4425605288497E-02  1.4207323212166E+00
137  1.3600000000000E+00 -5.0466195264400E-02  1.4105212408895E+00
138  1.3700000000000E+00 -6.5679592908032E-02  1.3982843574523E+00
139  1.3800000000000E+00 -8.0052888417697E-02  1.3840414891696E+00
140  1.3900000000000E+00 -9.3575584491711E-02  1.3678200072698E+00
141  1.4000000000000E+00 -1.0623963301327E-01  1.3496548913647E+00
142  1.4100000000000E+00 -1.1803945957948E-01  1.3295887407302E+00
143  1.4200000000000E+00 -1.2897197531920E-01  1.3076717396248E+00
144  1.4300000000000E+00 -1.3903657550597E-01  1.2839615750552E+00
145  1.4400000000000E+00 -1.4823512453964E-01  1.2585233056551E+00
146  1.4500000000000E+00 -1.5657192694191E-01  1.2314291806126E+00
147  1.4600000000000E+00 -1.6405368408677E-01  1.2027584078631E+00
148  1.4700000000000E+00 -1.7068943646649E-01  1.1725968710601E+00
149  1.4800000000000E+00 -1.7649049137628E-01  1.1410367951387E+00
150  1.4900000000000E+00 -1.8147033598651E-01  1.1081763606016E+00
151  1.5000000000000E+00 -1.8564453585834E-01  1.0741192669678E+00
152  1.5100000000000E+00 -1.8903061904813E-01  1.0389742461538E+00
153  1.5200000000000E+00 -1.9164794603533E-01  1.0028545268704E+00
154  1.5300000000000E+00 -1.9351756579878E-01  9.6587725144378E-01
155  1.5400000000000E+00 -1.9466205845630E-01  9.2816284678459E-01
156  1.5500000000000E+00 -1.9510536497059E-01  8.8983435154037E-01
157  1.5600000000000E+00 -1.9487260451204E-01  8.5101670177080E-01
158  1.5700000000000E+00 -1.9398988015332E-01  8.1183597777730E-01
159  1.5800000000000E+00 -1.9248407364304E-01  7.7241861490663E-01
160  1.5900000000000E+00 -1.9038263006286E-01  7.3289058127162E-01
161  1.6000000000000E+00 -1.8771333423663E-01  6.9337653462056E-01
162  1.6100000000000E+00 -1.8450407432844E-01  6.5399890964936E-01
163  1.6200000000000E+00 -1.8078264614031E-01  6.1487743960080E-01
164  1.6300000000000E+00 -1.7657670408657E-01  5.7613000342359E-01
165  1.6400000000000E+00 -1.7191368985842E-01  5.3787304227731E-01
166  1.6500000000000E+00 -1.6682065578124E-01  5.0022089505236E-01
167  1.6600000000000E+00 -1.6132408835898E-01  4.6328514720471E-01
168  1.6700000000000E+00 -1.5544973053527E-01  4.2717396913490E-01
169  1.6800000000000E+00 -1.4922240459310E-01  3.9199145791106E-01
170  1.6900000000000E+00 -1.4266583673507E-01  3.5783698629642E-01
171  1.7000000000000E+00 -1.3580248427891E-01  3.2480456215657E-01
172  1.7100000000000E+00 -1.2865336643290E-01  2.9298220169307E-01
173  1.7200000000000E+00 -1.2123789959331E-01  2.6245131985735E-01
174  1.7300000000000E+00 -1.1357373663572E-01  2.3328613656159E-01
175  1.7400000000000E+00 -1.0567662434191E-01  2.0555314453388E-01
176  1.7500000000000E+00 -9.7560233679172E-02  1.7931049120044E-01
177  1.7600000000000E+00 -8.9236022156687E-02  1.5460748091340E-01
178  1.7700000000000E+00 -8.0714387751837E-02  1.3148816746891E-01
179  1.7800000000000E+00 -7.2005005668384E-02  1.0999223150432E-01
180  1.7900000000000E+00 -6.3111502539103E-02  9.0137991926376E-02
181  1.8000000000000E+00 -5.4034442916262E-02  7.1932140744842E-02
182  1.8100000000000E+00 -4.4771456526833E-02  5.5370064351850E-02
183  1.8200000000000E+00 -3.5317259893621E-02  4.0435842216021E-02
184  1.8300000000000E+00 -2.5639869002234E-02  2.7084176508744E-02
185  1.8400000000000E+00 -1.6011161619512E-02  1.5495429032371E-02
186  1.8500000000000E+00 -4.8161389426599E-03  4.3619371666294E-03
187  1.8600000000000E+00  9.5013408198322E-04 -8.5050100453489E-04
188  1.8700000000000E+00 -1.9999710952013E-04  1.8188917251315E-04
189  1.88  0. -0.
190  1.89  0. -0.
191  1.90  0. -0.
192  1.91  0.  0.
193  1.92  0.  0.
194  1.93  0.  0.
195  1.94  0.  0.
196  1.95  0.  0.
197  1.96  0.  0.
198  1.97  0.  0.
199  1.98  0.  0.
200  1.99  0.  0.
201  2.00  0.  0.
202  2.01  0.  0.
203  2.02  0.  0.
204  2.03  0.  0.
205  2.04  0.  0.
206  2.05  0.  0.
207  2.06  0.  0.
208  2.07  0.  0.
209  2.08  0.  0.
210  2.09  0.  0.
211  2.10  0.  0.
212  2.11  0.  0.
213  2.12  0.  0.
214  2.13  0.  0.
215  2.14  0.  0.
216  2.15  0.  0.
217  2.16  0.  0.
218  2.17  0.  0.
219  2.18  0.  0.
220  2.19  0.  0.
221  2.20  0.  0.
222  2.21  0.  0.
223  2.22  0.  0.
224  2.23  0.  0.
225  2.24  0.  0.
226  2.25  0.  0.
227  2.26  0.  0.
228  2.27  0.  0.
229  2.28  0.  0.
230  2.29  0.  0.
231  2.30  0.  0.
232  2.31  0.  0.
233  2.32  0.  0.
234  2.33  0.  0.
235  2.34  0.  0.
236  2.35  0.  0.
237  2.36  0.  0.
238  2.37  0.  0.
239  2.38  0.  0.
240  2.39  0.  0.
241  2.40  0.  0.
242  2.41  0.  0.
243  2.42  0.  0.
244  2.43  0.  0.
245  2.44  0.  0.
246  2.45  0.  0.
247  2.46  0.  0.
248  2.47  0.  0.
249  2.48  0.  0.
250  2.49  0.  0.
251  2.50  0.  0.
252  2.51  0.  0.
253  2.52  0.  0.
254  2.53  0.  0.
255  2.54  0.  0.
256  2.55  0.  0.
257  2.56  0.  0.
258  2.57  0.  0.
259  2.58  0.  0.
260  2.59  0.  0.
261  2.60  0.  0.
262  2.61  0.  0.
263  2.62  0.  0.
264  2.63  0.  0.
265  2.64  0.  0.
266  2.65  0.  0.
267  2.66  0.  0.
268  2.67  0.  0.
269  2.68  0.  0.
270  2.69  0.  0.
271  2.70  0.  0.
272  2.71  0.  0.
273  2.72  0.  0.
274  2.73  0.  0.
275  2.74  0.  0.
276  2.75  0.  0.
277  2.76  0.  0.
278  2.77  0.  0.
279  2.78  0.  0.
280  2.79  0.  0.
281  2.80  0.  0.
282  2.81  0.  0.
283  2.82  0.  0.
284  2.83  0.  0.
285  2.84  0.  0.
286  2.85  0.  0.
287  2.86  0.  0.
288  2.87  0.  0.
289  2.88  0.  0.
290  2.89  0.  0.
291  2.90  0.  0.
292  2.91  0.  0.
293  2.92  0.  0.
294  2.93  0.  0.
295  2.94  0.  0.
296  2.95  0.  0.
297  2.96  0.  0.
298  2.97  0.  0.
299  2.98  0.  0.
300  2.99  0.  0.
301  3.00  0.  0.
302  3.01  0.  0.
303  3.02  0.  0.
304  3.03  0.  0.
305  3.04  0.  0.
306  3.05  0.  0.
307  3.06  0.  0.
308  3.07  0.  0.
309  3.08  0.  0.
310  3.09  0.  0.
311  3.10  0.  0.
312  3.11  0.  0.
313  3.12  0.  0.
314  3.13  0.  0.
315  3.14  0.  0.
316  3.15  0.  0.
317  3.16  0.  0.
318  3.17  0.  0.
319  3.18  0.  0.
320  3.19  0.  0.
321  3.20  0.  0.
322  3.21  0.  0.
323  3.22  0.  0.
324  3.23  0.  0.
325  3.24  0.  0.
326  3.25  0.  0.
327  3.26  0.  0.
328  3.27  0.  0.
329  3.28  0.  0.
330  3.29  0.  0.
331  3.30  0.  0.
332  3.31  0.  0.
333  3.32  0.  0.
334  3.33  0.  0.
335  3.34  0.  0.
336  3.35  0.  0.
337  3.36  0.  0.
338  3.37  0.  0.
339  3.38  0.  0.
340  3.39  0.  0.
341  3.40  0.  0.
342  3.41  0.  0.
343  3.42  0.  0.
344  3.43  0.  0.
345  3.44  0.  0.
346  3.45  0.  0.
347  3.46  0.  0.
348  3.47  0.  0.
349  3.48  0.  0.
350  3.49  0.  0.
351  3.50  0.  0.
352  3.51  0.  0.
353  3.52  0.  0.
354  3.53  0.  0.
355  3.54  0.  0.
356  3.55  0.  0.
357  3.56  0.  0.
358  3.57  0.  0.
359  3.58  0.  0.
360  3.59  0.  0.
361  3.60  0.  0.
362  3.61  0.  0.
363  3.62  0.  0.
364  3.63  0.  0.
365  3.64  0.  0.
366  3.65  0.  0.
367  3.66  0.  0.
368  3.67  0.  0.
369  3.68  0.  0.
370  3.69  0.  0.
371  3.70  0.  0.
372  3.71  0.  0.
373  3.72  0.  0.
374  3.73  0.  0.
375  3.74  0.  0.
376  3.75  0.  0.
377  3.76  0.  0.
378  3.77  0.  0.
379  3.78  0.  0.
380  3.79  0.  0.
381  3.80  0.  0.
382  3.81  0.  0.
383  3.82  0.  0.
384  3.83  0.  0.
385  3.84  0.  0.
386  3.85  0.  0.
387  3.86  0.  0.
388  3.87  0.  0.
389  3.88  0.  0.
390  3.89  0.  0.
391  3.90  0.  0.
392  3.91  0.  0.
393  3.92  0.  0.
394  3.93  0.  0.
395  3.94  0.  0.
396  3.95  0.  0.
397  3.96  0.  0.
398  3.97  0.  0.
399  3.98  0.  0.
400  3.99  0.  0.
401  4.00  0.  0.
402  4.01  0.  0.
403  4.02  0.  0.
404  4.03  0.  0.
405  4.04  0.  0.
406  4.05  0.  0.
407  4.06  0.  0.
408  4.07  0.  0.
409  4.08  0.  0.
410  4.09  0.  0.
411  4.10  0.  0.
412  4.11  0.  0.
413  4.12  0.  0.
414  4.13  0.  0.
415  4.14  0.  0.
416  4.15  0.  0.
417  4.16  0.  0.
418  4.17  0.  0.
419  4.18  0.  0.
420  4.19  0.  0.
421  4.20  0.  0.
422  4.21  0.  0.
423  4.22  0.  0.
424  4.23  0.  0.
425  4.24  0.  0.
426  4.25  0.  0.
427  4.26  0.  0.
428  4.27  0.  0.
429  4.28  0.  0.
430  4.29  0.  0.
431  4.30  0.  0.
432  4.31  0.  0.
433  4.32  0.  0.
434  4.33  0.  0.
435  4.34  0.  0.
436  4.35  0.  0.
437  4.36  0.  0.
438  4.37  0.  0.
439  4.38  0.  0.
440  4.39  0.  0.
441  4.40  0.  0.
442  4.41  0.  0.
443  4.42  0.  0.
444  4.43  0.  0.
445  4.44  0.  0.
446  4.45  0.  0.
447  4.46  0.  0.
448  4.47  0.  0.
449  4.48  0.  0.
450  4.49  0.  0.
451  4.50  0.  0.
452  4.51  0.  0.
453  4.52  0.  0.
454  4.53  0.  0.
455  4.54  0.  0.
456  4.55  0.  0.
457  4.56  0.  0.
458  4.57  0.  0.
459  4.58  0.  0.
460  4.59  0.  0.
461  4.60  0.  0.
462  4.61  0.  0.
463  4.62  0.  0.
464  4.63  0.  0.
465  4.64  0.  0.
466  4.65  0.  0.
467  4.66  0.  0.
468  4.67  0.  0.
469  4.68  0.  0.
470  4.69  0.  0.
471  4.70  0.  0.
472  4.71  0.  0.
473  4.72  0.  0.
474  4.73  0.  0.
475  4.74  0.  0.
476  4.75  0.  0.
477  4.76  0.  0.
478  4.77  0.  0.
479  4.78  0.  0.
480  4.79  0.  0.
481  4.80  0.  0.
482  4.81  0.  0.
483  4.82  0.  0.
484  4.83  0.  0.
485  4.84  0.  0.
486  4.85  0.  0.
487  4.86  0.  0.
488  4.87  0.  0.
489  4.88  0.  0.
490  4.89  0.  0.
491  4.90  0.  0.
492  4.91  0.  0.
493  4.92  0.  0.
494  4.93  0.  0.
495  4.94  0.  0.
496  4.95  0.  0.
497  4.96  0.  0.
498  4.97  0.  0.
499  4.98  0.  0.
500  4.99  0.  0.
501  5.00  0.  0.
502  5.01  0.  0.
503  5.02  0.  0.
504  5.03  0.  0.
505  5.04  0.  0.
506  5.05  0.  0.
507  5.06  0.  0.
508  5.07  0.  0.
509  5.08  0.  0.
510  5.09  0.  0.
511  5.10  0.  0.
512  5.11  0.  0.
513  5.12  0.  0.
514  5.13  0.  0.
515  5.14  0.  0.
516  5.15  0.  0.
517  5.16  0.  0.
518  5.17  0.  0.
519  5.18  0.  0.
520  5.19  0.  0.
521  5.20  0.  0.
522  5.21  0.  0.
523  5.22  0.  0.
524  5.23  0.  0.
525  5.24  0.  0.
526  5.25  0.  0.
527  5.26  0.  0.
528  5.27  0.  0.
529  5.28  0.  0.
530  5.29  0.  0.
531  5.30  0.  0.
532  5.31  0.  0.
533  5.32  0.  0.
534  5.33  0.  0.
535  5.34  0.  0.
536  5.35  0.  0.
537  5.36  0.  0.
538  5.37  0.  0.
539  5.38  0.  0.
540  5.39  0.  0.
541  5.40  0.  0.
542  5.41  0.  0.
543  5.42  0.  0.
544  5.43  0.  0.
545  5.44  0.  0.
546  5.45  0.  0.
547  5.46  0.  0.
548  5.47  0.  0.
549  5.48  0.  0.
550  5.49  0.  0.
551  5.50  0.  0.
552  5.51  0.  0.
553  5.52  0.  0.
554  5.53  0.  0.
555  5.54  0.  0.
556  5.55  0.  0.
557  5.56  0.  0.
558  5.57  0.  0.
559  5.58  0.  0.
560  5.59  0.  0.
561  5.60  0.  0.
562  5.61  0.  0.
563  5.62  0.  0.
564  5.63  0.  0.
565  5.64  0.  0.
566  5.65  0.  0.
567  5.66  0.  0.
568  5.67  0.  0.
569  5.68  0.  0.
570  5.69  0.  0.
571  5.70  0.  0.
572  5.71  0.  0.
573  5.72  0.  0.
574  5.73  0.  0.
575  5.74  0.  0.
576  5.75  0.  0.
577  5.76  0.  0.
578  5.77  0.  0.
579  5.78  0.  0.
580  5.79  0.  0.
581  5.80  0.  0.
582  5.81  0.  0.
583  5.82  0.  0.
584  5.83  0.  0.
585  5.84  0.  0.
586  5.85  0.  0.
587  5.86  0.  0.
588  5.87  0.  0.
589  5.88  0.  0.
590  5.89  0.  0.
591  5.90  0.  0.
592  5.91  0.  0.
593  5.92  0.  0.
594  5.93  0.  0.
595  5.94  0.  0.
596  5.95  0.  0.
597  5.96  0.  0.
598  5.97  0.  0.
599  5.98  0.  0.
600  5.99  0.  0.
1                         3.8233719398981E+00  5.6563969658837E-01
1  0.0000000000000E+00  1.4357625227612E-09 -2.9537205736840E-09
2  1.0000000000000E-02  7.9226962895546E-04 -8.8905840509287E-04
3  2.0000000000000E-02  3.1634717968161E-03 -3.5455191559057E-03
4  3.0000000000000E-02  7.0968516969957E-03 -7.9373722037011E-03
5  4.0000000000000E-02  1.2564701696013E-02 -1.4011710322345E-02
6  5.0000000000000E-02  1.9528684141902E-02 -2.1695387715283E-02
7  6.0000000000000E-02  2.7940277813254E-02 -3.0895930782038E-02
8  7.0000000000000E-02  3.7741342603175E-02 -4.1502689920033E-02
9  8.0000000000000E-02  4.8864795596618E-02 -5.3388218283794E-02
10  9.0000000000000E-02  6.1235390343788E-02 -6.6409860635077E-02
11  1.0000000000000E-01  7.4770589872523E-02 -8.0411532827320E-02
12  1.1000000000000E-01  8.9381522833212E-02 -9.5225670105768E-02
13  1.2000000000000E-01  1.0497401114505E-01 -1.1067532029992E-01
14  1.3000000000000E-01  1.2144965662388E-01 -1.2657635616143E-01
15  1.4000000000000E-01  1.3870697333077E-01 -1.4273977958182E-01
16  1.5000000000000E-01  1.5664255179528E-01 -1.5897408922709E-01
17  1.6000000000000E-01  1.7515224084591E-01 -1.7508768226733E-01
18  1.7000000000000E-01  1.9413233252708E-01 -1.9089126036794E-01
19  1.8000000000000E-01  2.1348073550169E-01 -2.0620020995383E-01
20  1.9000000000000E-01  2.3309812243141E-01 -2.2083692696073E-01
21  2.0000000000000E-01  2.5288903709334E-01 -2.3463305684839E-01
22  2.1000000000000E-01  2.7276294742914E-01 -2.4743162156278E-01
23  2.2000000000000E-01  2.9263523132672E-01 -2.5908900639077E-01
24  2.3000000000000E-01  3.1242808269816E-01 -2.6947678123572E-01
25  2.4000000000000E-01  3.3207132633394E-01 -2.7848333274139E-01
26  2.5000000000000E-01  3.5150313107090E-01 -2.8601528588145E-01
27  2.6000000000000E-01  3.7067061199980E-01 -2.9199869609069E-01
28  2.7000000000000E-01  3.8953031374339E-01 -2.9637999571243E-01
29  2.8000000000000E-01  4.0804856824360E-01 -2.9912668144568E-01
30  2.9000000000000E-01  4.2620172199103E-01 -3.0022773256202E-01
31  3.0000000000000E-01  4.4397622919369E-01 -2.9969375289066E-01
32  3.1000000000000E-01  4.6136860899828E-01 -2.9755683290413E-01
33  3.2000000000000E-01  4.7838526652631E-01 -2.9387013163780E-01
34  3.3000000000000E-01  4.9504217915134E-01 -2.8870718160503E-01
35  3.4000000000000E-01  5.1136445110217E-01 -2.8216092328618E-01
36  3.5000000000000E-01  5.2738574111146E-01 -2.7434247913289E-01
37  3.6000000000000E-01  5.4314756941975E-01 -2.6537968030139E-01
38  3.7000000000000E-01  5.5869851197371E-01 -2.5541536246876E-01
39  3.8000000000000E-01  5.7409329110477E-01 -2.4460545005775E-01
40  3.9000000000000E-01  5.8939177332412E-01 -2.3311685096267E-01
41  4.0000000000000E-01  6.0465788610433E-01 -2.2112518639644E-01
42  4.1000000000000E-01  6.1995846662331E-01 -2.0881238273610E-01
43  4.2000000000000E-01  6.3536205640606E-01 -1.9636415420204E-01
44  4.3000000000000E-01  6.5093765660486E-01 -1.8396740683909E-01
45  4.4000000000000E-01  6.6675345929472E-01 -1.7180759555415E-01
46  4.5000000000000E-01  6.8287557062251E-01 -1.6006606688609E-01
47  4.6000000000000E-01  6.9936674192545E-01 -1.4891742072549E-01
48  4.7000000000000E-01  7.1628512502473E-01 -1.3852692435460E-01
49  4.8000000000000E-01  7.3368306779838E-01 -1.2904801193559E-01
50  4.9000000000000E-01  7.5160596584488E-01 -1.2061990193648E-01
51  5.0000000000000E-01  7.7009118556558E-01 -1.1336536395342E-01
52  5.1000000000000E-01  7.8916707332450E-01 -1.0738866497158E-01
53  5.2000000000000E-01  8.0885206449335E-01 -1.0277372331849E-01
54  5.3000000000000E-01  8.2915390516654E-01 -9.9582496419271E-02
55  5.4000000000000E-01  8.5006899814452E-01 -9.7853625984027E-02
56  5.5000000000000E-01  8.7158188344703E-01 -9.7601361468498E-02
57  5.6000000000000E-01  8.9366486214329E-01 -9.8814779579315E-02
58  5.7000000000000E-01  9.1627777069039E-01 -1.0145731427621E-01
59  5.8000000000000E-01  9.3936791127063E-01 -1.0546660819208E-01
60  5.9000000000000E-01  9.6287014183159E-01 -1.1075469268482E-01
61  6.0000000000000E-01  9.8670712767935E-01 -1.1720849989467E-01
62  6.1000000000000E-01  1.0107897545755E+00 -1.2469070624828E-01
63  6.2000000000000E-01  1.0350177013646E+00 -1.3304090287272E-01
64  6.3000000000000E-01  1.0592801682300E+00 -1.4207708440108E-01
65  6.4000000000000E-01  1.0834567547700E+00 -1.5159744371609E-01
66  6.5000000000000E-01  1.1074184802163E+00 -1.6138245633088E-01
67  6.6000000000000E-01  1.1310289363150E+00 -1.7119723439654E-01
68  6.7000000000000E-01  1.1541455616706E+00 -1.8079412679478E-01
69  6.8000000000000E-01  1.1766210247386E+00 -1.8991553846692E-01
70  6.9000000000000E-01  1.1983047011658E+00 -1.9829693908653E-01
71  7.0000000000000E-01  1.2190442298301E+00 -2.0567002844238E-01
72  7.1000000000000E-01  1.2386871307514E+00 -2.1176602349441E-01
73  7.2000000000000E-01  1.2570824670348E+00 -2.1631903003310E-01
74  7.3000000000000E-01  1.2740825321947E+00 -2.1906946023708E-01
75  7.4000000000000E-01  1.2895445435932E+00 -2.1976745621277E-01
76  7.5000000000000E-01  1.3033323223233E+00 -2.1817627882922E-01
77  7.6000000000000E-01  1.3153179396913E+00 -2.1407562085013E-01
78  7.7000000000000E-01  1.3253833104877E+00 -2.0726480352009E-01
79  7.8000000000000E-01  1.3334217135157E+00 -1.9756581638981E-01
80  7.9000000000000E-01  1.3393392203361E+00 -1.8482616126547E-01
81  8.0000000000000E-01  1.3430560139167E+00 -1.6892146273408E-01
82  8.1000000000000E-01  1.3445075798145E+00 -1.4975780973783E-01
83  8.2000000000000E-01  1.3436457536745E+00 -1.2727379513366E-01
84  8.3000000000000E-01  1.3404396101898E+00 -1.0144222305151E-01
85  8.4000000000000E-01  1.3348761802116E+00 -7.2271457137727E-02
86  8.5000000000000E-01  1.3269609844256E+00 -3.9806386400506E-02
87  8.6000000000000E-01  1.3167183738909E+00 -4.1289893312245E-03
88  8.7000000000000E-01  1.3041916697605E+00  3.4641518781872E-02
89  8.8000000000000E-01  1.2894430966416E+00  7.6348965948188E-02
90  8.9000000000000E-01  1.2725535062955E+00  1.2080093689729E-01
91  9.0000000000000E-01  1.2536218906822E+00  1.6776992092460E-01
92  9.1000000000000E-01  1.2327646857202E+00  2.1699489033556E-01
93  9.2000000000000E-01  1.2101148695098E+00  2.6818330070288E-01
94  9.3000000000000E-01  1.1858208611486E+00  3.2101349920631E-01
95  9.4000000000000E-01  1.1600452286189E+00  3.7513752244521E-01
96  9.5000000000000E-01  1.1329632165164E+00  4.3018426036448E-01
97  9.6000000000000E-01  1.1047611066030E+00  4.8576295835802E-01
98  9.7000000000000E-01  1.0756344262659E+00  5.4146702527569E-01
99  9.8000000000000E-01  1.0457860219386E+00  5.9687811100076E-01
100  9.9000000000000E-01  1.0154240163456E+00  6.5157041354289E-01
101  1.0000000000000E+00  9.8475967007379E-01  7.0511517224593E-01
102  1.0100000000000E+00  9.5400516940188E-01  7.5708530078706E-01
103  1.0200000000000E+00  9.2337136353862E-01  8.0706011118305E-01
104  1.0300000000000E+00  8.9306547540110E-01  8.5463007804796E-01
105  1.0400000000000E+00  8.6328881079822E-01  8.9940159090315E-01
106  1.0500000000000E+00  8.3423449135666E-01  9.4100164144112E-01
107  1.0600000000000E+00  8.0608523673143E-01  9.7908239230887E-01
108  1.0700000000000E+00  7.7901122157094E-01  1.0133255742201E+00
109  1.0800000000000E+00  7.5316803235881E-01  1.0434466590270E+00
110  1.0900000000000E+00  7.2869474862501E-01  1.0691987577917E+00
111  1.1000000000000E+00  7.0571217211937E-01  1.0903761948713E+00
112  1.1100000000000E+00  6.8432122636469E-01  1.1068177115828E+00
113  1.1200000000000E+00  6.6460154757895E-01  1.1184092560839E+00
114  1.1300000000000E+00  6.4661028627094E-01  1.1250863197230E+00
115  1.1400000000000E+00  6.3038113690493E-01  1.1268357841810E+00
116  1.1500000000000E+00  6.1592361089401E-01  1.1236972482747E+00
117  1.1600000000000E+00  6.0322256586306E-01  1.1157638082174E+00
118  1.1700000000000E+00  5.9223800161395E-01  1.1031822704443E+00
119  1.1800000000000E+00  5.8290513058867E-01  1.0861527816893E+00
120  1.1900000000000E+00  5.7513472784159E-01  1.0649278668821E+00
121  1.2000000000000E+00  5.6881376268108E-01  1.0398108714460E+00
122  1.2100000000000E+00  5.6380631119881E-01  1.0111538107736E+00
123  1.2200000000000E+00  5.5995474594661E-01  9.7935463588254E-01
124  1.2300000000000E+00  5.5708119605439E-01  9.4485393048496E-01
125  1.2400000000000E+00  5.5498926813430E-01  9.0813106089246E-01
126  1.2500000000000E+00  5.5346601544871E-01  8.6969980618873E-01
127  1.2600000000000E+00  5.5228414002209E-01  8.3010350195810E-01
128  1.2700000000000E+00  5.5120440971036E-01  7.8990973643131E-01
129  1.2800000000000E+00  5.4997826973515E-01  7.4970464314125E-01
130  1.2900000000000E+00  5.4835062584410E-01  7.1008683906812E-01
131  1.3000000000000E+00  5.4606277413477E-01  6.7166106166796E-01
132  1.3100000000000E+00  5.4285545068641E-01  6.3503156210348E-01
133  1.3200000000000E+00  5.3847197249378E-01  6.0079531540382E-01
134  1.3300000000000E+00  5.3266143983265E-01  5.6953511108415E-01
135  1.3400000000000E+00  5.2518196910874E-01  5.4181258995321E-01
136  1.3500000000000E+00  5.1580392447024E-01  5.1816129438708E-01
137  1.3600000000000E+00  5.0431311600852E-01  4.9907980023037E-01
138  1.3700000000000E+00  4.9051393224433E-01  4.8502499867680E-01
139  1.3800000000000E+00  4.7423237479767E-01  4.7640559597998E-01
140  1.3900000000000E+00  4.5531896366838E-01  4.7357589765447E-01
141  1.4000000000000E+00  4.3365148241930E-01  4.7682994192796E-01
142  1.4100000000000E+00  4.0913753373411E-01  4.8639604464501E-01
143  1.4200000000000E+00  3.8171687732171E-01  5.0243181458943E-01
144  1.4300000000000E+00  3.5136352393359E-01  5.2501969434199E-01
145  1.4400000000000E+00  3.1808756134491E-01  5.5416307733106E-01