Ga    ONCVPSP-4.0.1  r_core=   1.20620   1.30375   1.50503
31.0000     21.0000      220329    zatom,zion,pspd
8      11   2     4   600     0    pspcod,pspxc,lmax,lloc,mmax,r2well
5.99000000  3.00000000  0.00000000    rchrg fchrg qchrg
2     2     2     0     0    nproj
1     1           extension_switch
0                         4.6391667030961E+00 -1.1995869812906E+00
1  0.0000000000000E+00 -8.4897366914305E-09 -2.9533195056164E-09
2  1.0000000000000E-02  1.1680936508088E-01  2.7743833856241E-02
3  2.0000000000000E-02  2.3296645700510E-01  5.5454654169075E-02
4  3.0000000000000E-02  3.4782566301978E-01  8.3100677972699E-02
5  4.0000000000000E-02  4.6075457984944E-01  1.1065254974546E-01
6  5.0000000000000E-02  5.7114034234690E-01  1.3808447163438E-01
7  6.0000000000000E-02  6.7839562705614E-01  1.6537523565000E-01
8  7.0000000000000E-02  7.8196423254913E-01  1.9250912871685E-01
9  8.0000000000000E-02  8.8132614688784E-01  2.1947668441822E-01
10  9.0000000000000E-02  9.7600202283945E-01  2.4627525884326E-01
11  1.0000000000000E-01  1.0655569933220E+00  2.7290941205268E-01
12  1.1000000000000E-01  1.1496037727342E+00  2.9939108123584E-01
13  1.2000000000000E-01  1.2278050040503E+00  3.2573953653858E-01
14  1.3000000000000E-01  1.2998748265485E+00  3.5198111568904E-01
15  1.4000000000000E-01  1.3655796544650E+00  3.7814873882590E-01
16  1.5000000000000E-01  1.4247381724218E+00  4.0428121022289E-01
17  1.6000000000000E-01  1.4772205688221E+00  4.3042231878796E-01
18  1.7000000000000E-01  1.5229470432320E+00  4.5661975418039E-01
19  1.8000000000000E-01  1.5618856377637E+00  4.8292386002195E-01
20  1.9000000000000E-01  1.5940494553390E+00  5.0938624987525E-01
21  2.0000000000000E-01  1.6194933391880E+00  5.3605831532676E-01
22  2.1000000000000E-01  1.6383100977702E+00  5.6298965855923E-01
23  2.2000000000000E-01  1.6506263673042E+00  5.9022648415544E-01
24  2.3000000000000E-01  1.6565982100718E+00  6.1780998648486E-01
25  2.4000000000000E-01  1.6564065505132E+00  6.4577476984405E-01
26  2.5000000000000E-01  1.6502525527559E+00  6.7414733852505E-01
27  2.6000000000000E-01  1.6383530426033E+00  7.0294469316575E-01
28  2.7000000000000E-01  1.6209360741444E+00  7.3217306810034E-01
29  2.8000000000000E-01  1.5982367361111E+00  7.6182684200509E-01
30  2.9000000000000E-01  1.5704932860038E+00  7.9188765096727E-01
31  3.0000000000000E-01  1.5379436909796E+00  8.2232372925455E-01
32  3.1000000000000E-01  1.5008226437514E+00  8.5308949860379E-01
33  3.2000000000000E-01  1.4593591095063E+00  8.8412542187135E-01
34  3.3000000000000E-01  1.4137744463813E+00  9.1535813149259E-01
35  3.4000000000000E-01  1.3642811276307E+00  9.4670083749878E-01
36  3.5000000000000E-01  1.3110820785932E+00  9.7805401395190E-01
37  3.6000000000000E-01  1.2543706262400E+00  1.0093063567081E+00
38  3.7000000000000E-01  1.1943310438093E+00  1.0403359995345E+00
39  3.8000000000000E-01  1.1311396581286E+00  1.0710119699067E+00
40  3.9000000000000E-01  1.0649664730384E+00  1.1011958604370E+00
41  4.0000000000000E-01  9.9597724916857E-01  1.1307436869299E+00
42  4.1000000000000E-01  9.2433596849169E-01  1.1595078996636E+00
43  4.2000000000000E-01  8.5020760183989E-01  1.1873395107333E+00
44  4.3000000000000E-01  7.7376108918506E-01  1.2140902972678E+00
45  4.4000000000000E-01  6.9517243612736E-01  1.2396150381115E+00
46  4.5000000000000E-01  6.1462782588643E-01  1.2637737402052E+00
47  4.6000000000000E-01  5.3232664424997E-01  1.2864338104484E+00
48  4.7000000000000E-01  4.4848431547004E-01  1.3074721292949E+00
49  4.8000000000000E-01  3.6333485002176E-01  1.3267769837304E+00
50  4.9000000000000E-01  2.7713301041180E-01  1.3442498195853E+00
51  5.0000000000000E-01  1.9015600875563E-01  1.3598067763112E+00
52  5.1000000000000E-01  1.0270465949143E-01  1.3733799713390E+00
53  5.2000000000000E-01  1.5103922177873E-02  1.3849185058678E+00
54  5.3000000000000E-01 -7.2297217399622E-02  1.3943891693153E+00
55  5.4000000000000E-01 -1.5912656488588E-01  1.4017768255854E+00
56  5.5000000000000E-01 -2.4499025502168E-01  1.4070844706651E+00
57  5.6000000000000E-01 -3.2947501395002E-01  1.4103329577153E+00
58  5.7000000000000E-01 -4.1215113374651E-01  1.4115603926360E+00
59  5.8000000000000E-01 -4.9257612964362E-01  1.4108212099272E+00
60  5.9000000000000E-01 -5.7029903361244E-01  1.4081849453813E+00
61  6.0000000000000E-01 -6.4486526184062E-01  1.4037347286016E+00
62  6.1000000000000E-01 -7.1582197856226E-01  1.3975655243890E+00
63  6.2000000000000E-01 -7.8272386500148E-01  1.3897821575588E+00
64  6.3000000000000E-01 -8.4513919020368E-01  1.3804971606147E+00
65  6.4000000000000E-01 -9.0265607053611E-01  1.3698284877976E+00
66  6.5000000000000E-01 -9.5488879688998E-01  1.3578971422699E+00
67  6.6000000000000E-01 -1.0014841033134E+00  1.3448247654879E+00
68  6.7000000000000E-01 -1.0421272481035E+00  1.3307312391170E+00
69  6.8000000000000E-01 -1.0765477783869E+00  1.3157323501068E+00
70  6.9000000000000E-01 -1.1045248519664E+00  1.2999375687508E+00
71  7.0000000000000E-01 -1.1258919956925E+00  1.2834479877115E+00
72  7.1000000000000E-01 -1.1405411877671E+00  1.2663544671279E+00
73  7.2000000000000E-01 -1.1484261620632E+00  1.2487360270749E+00
74  7.3000000000000E-01 -1.1495648455764E+00  1.2306585238975E+00
75  7.4000000000000E-01 -1.1440408552711E+00  1.2121736413686E+00
76  7.5000000000000E-01 -1.1320039975537E+00  1.1933182213420E+00
77  7.6000000000000E-01 -1.1136697320896E+00  1.1741139516970E+00
78  7.7000000000000E-01 -1.0893175812985E+00  1.1545674220523E+00
79  7.8000000000000E-01 -1.0592884872305E+00  1.1346705500931E+00
80  7.9000000000000E-01 -1.0239811382387E+00  1.1144013735828E+00
81  8.0000000000000E-01 -9.8384730847959E-01  1.0937251953585E+00
82  8.1000000000000E-01 -9.3938627338222E-01  1.0725960610174E+00
83  8.2000000000000E-01 -8.9113838339409E-01  1.0509585417379E+00
84  8.3000000000000E-01 -8.3967789613175E-01  1.0287497879027E+00
85  8.4000000000000E-01 -7.8560518315343E-01  1.0059018130491E+00
86  8.5000000000000E-01 -7.2953844157138E-01  9.8234396229734E-01
87  8.6000000000000E-01 -6.7210505232024E-01  9.5800551491722E-01
88  8.7000000000000E-01 -6.1393273582459E-01  9.3281836719816E-01
89  8.8000000000000E-01 -5.5564066184673E-01  9.0671973935937E-01
90  8.9000000000000E-01 -4.9783067328634E-01  8.7965484894695E-01
91  9.0000000000000E-01 -4.4107878354668E-01  8.5157949304512E-01
92  9.1000000000000E-01 -3.8592710374586E-01  8.2246248269670E-01
93  9.2000000000000E-01 -3.3287634956425E-01  7.9228787517353E-01
94  9.3000000000000E-01 -2.8237906798023E-01  7.6105695312451E-01
95  9.4000000000000E-01 -2.3483371171345E-01  7.2878990410075E-01
96  9.5000000000000E-01 -1.9057967408966E-01  6.9552715943113E-01
97  9.6000000000000E-01 -1.4989337954456E-01  6.6133035779493E-01
98  9.7000000000000E-01 -1.1298550542101E-01  6.2628290598897E-01
99  9.8000000000000E-01 -7.9999389469715E-02  5.9049011717336E-01
100  9.9000000000000E-01 -5.1010654938413E-02  5.5407891515224E-01
101  1.0000000000000E+00 -2.6028061781763E-02  5.1719710183572E-01
102  1.0100000000000E+00 -4.9955688016817E-03  4.8001219376576E-01
103  1.0200000000000E+00  1.2204432074065E-02  4.4270984228868E-01
104  1.0300000000000E+00  2.5746771211497E-02  4.0549186045774E-01
105  1.0400000000000E+00  3.5858130194221E-02  3.6857388785690E-01
106  1.0500000000000E+00  4.2810748524432E-02  3.3218273209229E-01
107  1.0600000000000E+00  4.6915330948965E-02  2.9655343255476E-01
108  1.0700000000000E+00  4.8513294483882E-02  2.6192609804426E-01
109  1.0800000000000E+00  4.7968507819453E-02  2.2854257486454E-01
110  1.0900000000000E+00  4.5658686451012E-02  1.9664300592115E-01
111  1.1000000000000E+00  4.1966614370731E-02  1.6646234410232E-01
112  1.1100000000000E+00  3.7271367328283E-02  1.3822688473524E-01
113  1.1200000000000E+00  3.1939713401838E-02  1.1215088214534E-01
114  1.1300000000000E+00  2.6317856809891E-02  8.8433311934857E-02
115  1.1400000000000E+00  2.0723755520424E-02  6.7254857067917E-02
116  1.1500000000000E+00  1.5435733718999E-02  4.8773582183714E-02
117  1.1600000000000E+00  1.0667346520498E-02  3.3114516552265E-02
118  1.1700000000000E+00  6.6276262343141E-03  2.0392149589537E-02
119  1.1800000000000E+00  3.4777634763797E-03  1.0696642618688E-02
120  1.1900000000000E+00  1.3190776809220E-03  4.0900630572546E-03
121  1.2000000000000E+00  1.9324016377419E-04  6.0926547956590E-04
122  1.2100000000000E+00 -1.1348884903226E-05 -3.6319320287588E-05
123  1.2200000000000E+00  1.0006730569756E-06  3.1785630868163E-06
124  1.23 -0.  0.
125  1.24  0.  0.
126  1.25  0.  0.
127  1.26  0.  0.
128  1.27  0.  0.
129  1.28  0.  0.
130  1.29  0.  0.
131  1.30  0.  0.
132  1.31  0.  0.
133  1.32  0.  0.
134  1.33  0.  0.
135  1.34  0.  0.
136  1.35  0.  0.
137  1.36  0.  0.
138  1.37  0.  0.
139  1.38  0.  0.
140  1.39  0.  0.
141  1.40  0.  0.
142  1.41  0.  0.
143  1.42  0.  0.
144  1.43  0.  0.
145  1.44  0.  0.
146  1.45  0.  0.
147  1.46  0.  0.
148  1.47  0.  0.
149  1.48  0.  0.
150  1.49  0.  0.
151  1.50  0.  0.
152  1.51  0.  0.
153  1.52  0.  0.
154  1.53  0.  0.
155  1.54  0.  0.
156  1.55  0.  0.
157  1.56  0.  0.
158  1.57  0.  0.
159  1.58  0.  0.
160  1.59  0.  0.
161  1.60  0.  0.
162  1.61  0.  0.
163  1.62  0.  0.
164  1.63  0.  0.
165  1.64  0.  0.
166  1.65  0.  0.
167  1.66  0.  0.
168  1.67  0.  0.
169  1.68  0.  0.
170  1.69  0.  0.
171  1.70  0.  0.
172  1.71  0.  0.
173  1.72  0.  0.
174  1.73  0.  0.
175  1.74  0.  0.
176  1.75  0.  0.
177  1.76  0.  0.
178  1.77  0.  0.
179  1.78  0.  0.
180  1.79  0.  0.
181  1.80  0.  0.
182  1.81  0.  0.
183  1.82  0.  0.
184  1.83  0.  0.
185  1.84  0.  0.
186  1.85  0.  0.
187  1.86  0.  0.
188  1.87  0.  0.
189  1.88  0.  0.
190  1.89  0.  0.
191  1.90  0.  0.
192  1.91  0.  0.
193  1.92  0.  0.
194  1.93  0.  0.
195  1.94  0.  0.
196  1.95  0.  0.
197  1.96  0.  0.
198  1.97  0.  0.
199  1.98  0.  0.
200  1.99  0.  0.
201  2.00  0.  0.
202  2.01  0.  0.
203  2.02  0.  0.
204  2.03  0.  0.
205  2.04  0.  0.
206  2.05  0.  0.
207  2.06  0.  0.
208  2.07  0.  0.
209  2.08  0.  0.
210  2.09  0.  0.
211  2.10  0.  0.
212  2.11  0.  0.
213  2.12  0.  0.
214  2.13  0.  0.
215  2.14  0.  0.
216  2.15  0.  0.
217  2.16  0.  0.
218  2.17  0.  0.
219  2.18  0.  0.
220  2.19  0.  0.
221  2.20  0.  0.
222  2.21  0.  0.
223  2.22  0.  0.
224  2.23  0.  0.
225  2.24  0.  0.
226  2.25  0.  0.
227  2.26  0.  0.
228  2.27  0.  0.
229  2.28  0.  0.
230  2.29  0.  0.
231  2.30  0.  0.
232  2.31  0.  0.
233  2.32  0.  0.
234  2.33  0.  0.
235  2.34  0.  0.
236  2.35  0.  0.
237  2.36  0.  0.
238  2.37  0.  0.
239  2.38  0.  0.
240  2.39  0.  0.
241  2.40  0.  0.
242  2.41  0.  0.
243  2.42  0.  0.
244  2.43  0.  0.
245  2.44  0.  0.
246  2.45  0.  0.
247  2.46  0.  0.
248  2.47  0.  0.
249  2.48  0.  0.
250  2.49  0.  0.
251  2.50  0.  0.
252  2.51  0.  0.
253  2.52  0.  0.
254  2.53  0.  0.
255  2.54  0.  0.
256  2.55  0.  0.
257  2.56  0.  0.
258  2.57  0.  0.
259  2.58  0.  0.
260  2.59  0.  0.
261  2.60  0.  0.
262  2.61  0.  0.
263  2.62  0.  0.
264  2.63  0.  0.
265  2.64  0.  0.
266  2.65  0.  0.
267  2.66  0.  0.
268  2.67  0.  0.
269  2.68  0.  0.
270  2.69  0.  0.
271  2.70  0.  0.
272  2.71  0.  0.
273  2.72  0.  0.
274  2.73  0.  0.
275  2.74  0.  0.
276  2.75  0.  0.
277  2.76  0.  0.
278  2.77  0.  0.
279  2.78  0.  0.
280  2.79  0.  0.
281  2.80  0.  0.
282  2.81  0.  0.
283  2.82  0.  0.
284  2.83  0.  0.
285  2.84  0.  0.
286  2.85  0.  0.
287  2.86  0.  0.
288  2.87  0.  0.
289  2.88  0.  0.
290  2.89  0.  0.
291  2.90  0.  0.
292  2.91  0.  0.
293  2.92  0.  0.
294  2.93  0.  0.
295  2.94  0.  0.
296  2.95  0.  0.
297  2.96  0.  0.
298  2.97  0.  0.
299  2.98  0.  0.
300  2.99  0.  0.
301  3.00  0.  0.
302  3.01  0.  0.
303  3.02  0.  0.
304  3.03  0.  0.
305  3.04  0.  0.
306  3.05  0.  0.
307  3.06  0.  0.
308  3.07  0.  0.
309  3.08  0.  0.
310  3.09  0.  0.
311  3.10  0.  0.
312  3.11  0.  0.
313  3.12  0.  0.
314  3.13  0.  0.
315  3.14  0.  0.
316  3.15  0.  0.
317  3.16  0.  0.
318  3.17  0.  0.
319  3.18  0.  0.
320  3.19  0.  0.
321  3.20  0.  0.
322  3.21  0.  0.
323  3.22  0.  0.
324  3.23  0.  0.
325  3.24  0.  0.
326  3.25  0.  0.
327  3.26  0.  0.
328  3.27  0.  0.
329  3.28  0.  0.
330  3.29  0.  0.
331  3.30  0.  0.
332  3.31  0.  0.
333  3.32  0.  0.
334  3.33  0.  0.
335  3.34  0.  0.
336  3.35  0.  0.
337  3.36  0.  0.
338  3.37  0.  0.
339  3.38  0.  0.
340  3.39  0.  0.
341  3.40  0.  0.
342  3.41  0.  0.
343  3.42  0.  0.
344  3.43  0.  0.
345  3.44  0.  0.
346  3.45  0.  0.
347  3.46  0.  0.
348  3.47  0.  0.
349  3.48  0.  0.
350  3.49  0.  0.
351  3.50  0.  0.
352  3.51  0.  0.
353  3.52  0.  0.
354  3.53  0.  0.
355  3.54  0.  0.
356  3.55  0.  0.
357  3.56  0.  0.
358  3.57  0.  0.
359  3.58  0.  0.
360  3.59  0.  0.
361  3.60  0.  0.
362  3.61  0.  0.
363  3.62  0.  0.
364  3.63  0.  0.
365  3.64  0.  0.
366  3.65  0.  0.
367  3.66  0.  0.
368  3.67  0.  0.
369  3.68  0.  0.
370  3.69  0.  0.
371  3.70  0.  0.
372  3.71  0.  0.
373  3.72  0.  0.
374  3.73  0.  0.
375  3.74  0.  0.
376  3.75  0.  0.
377  3.76  0.  0.
378  3.77  0.  0.
379  3.78  0.  0.
380  3.79  0.  0.
381  3.80  0.  0.
382  3.81  0.  0.
383  3.82  0.  0.
384  3.83  0.  0.
385  3.84  0.  0.
386  3.85  0.  0.
387  3.86  0.  0.
388  3.87  0.  0.
389  3.88  0.  0.
390  3.89  0.  0.
391  3.90  0.  0.
392  3.91  0.  0.
393  3.92  0.  0.
394  3.93  0.  0.
395  3.94  0.  0.
396  3.95  0.  0.
397  3.96  0.  0.
398  3.97  0.  0.
399  3.98  0.  0.
400  3.99  0.  0.
401  4.00  0.  0.
402  4.01  0.  0.
403  4.02  0.  0.
404  4.03  0.  0.
405  4.04  0.  0.
406  4.05  0.  0.
407  4.06  0.  0.
408  4.07  0.  0.
409  4.08  0.  0.
410  4.09  0.  0.
411  4.10  0.  0.
412  4.11  0.  0.
413  4.12  0.  0.
414  4.13  0.  0.
415  4.14  0.  0.
416  4.15  0.  0.
417  4.16  0.  0.
418  4.17  0.  0.
419  4.18  0.  0.
420  4.19  0.  0.
421  4.20  0.  0.
422  4.21  0.  0.
423  4.22  0.  0.
424  4.23  0.  0.
425  4.24  0.  0.
426  4.25  0.  0.
427  4.26  0.  0.
428  4.27  0.  0.
429  4.28  0.  0.
430  4.29  0.  0.
431  4.30  0.  0.
432  4.31  0.  0.
433  4.32  0.  0.
434  4.33  0.  0.
435  4.34  0.  0.
436  4.35  0.  0.
437  4.36  0.  0.
438  4.37  0.  0.
439  4.38  0.  0.
440  4.39  0.  0.
441  4.40  0.  0.
442  4.41  0.  0.
443  4.42  0.  0.
444  4.43  0.  0.
445  4.44  0.  0.
446  4.45  0.  0.
447  4.46  0.  0.
448  4.47  0.  0.
449  4.48  0.  0.
450  4.49  0.  0.
451  4.50  0.  0.
452  4.51  0.  0.
453  4.52  0.  0.
454  4.53  0.  0.
455  4.54  0.  0.
456  4.55  0.  0.
457  4.56  0.  0.
458  4.57  0.  0.
459  4.58  0.  0.
460  4.59  0.  0.
461  4.60  0.  0.
462  4.61  0.  0.
463  4.62  0.  0.
464  4.63  0.  0.
465  4.64  0.  0.
466  4.65  0.  0.
467  4.66  0.  0.
468  4.67  0.  0.
469  4.68  0.  0.
470  4.69  0.  0.
471  4.70  0.  0.
472  4.71  0.  0.
473  4.72  0.  0.
474  4.73  0.  0.
475  4.74  0.  0.
476  4.75  0.  0.
477  4.76  0.  0.
478  4.77  0.  0.
479  4.78  0.  0.
480  4.79  0.  0.
481  4.80  0.  0.
482  4.81  0.  0.
483  4.82  0.  0.
484  4.83  0.  0.
485  4.84  0.  0.
486  4.85  0.  0.
487  4.86  0.  0.
488  4.87  0.  0.
489  4.88  0.  0.
490  4.89  0.  0.
491  4.90  0.  0.
492  4.91  0.  0.
493  4.92  0.  0.
494  4.93  0.  0.
495  4.94  0.  0.
496  4.95  0.  0.
497  4.96  0.  0.
498  4.97  0.  0.
499  4.98  0.  0.
500  4.99  0.  0.
501  5.00  0.  0.
502  5.01  0.  0.
503  5.02  0.  0.
504  5.03  0.  0.
505  5.04  0.  0.
506  5.05  0.  0.
507  5.06  0.  0.
508  5.07  0.  0.
509  5.08  0.  0.
510  5.09  0.  0.
511  5.10  0.  0.
512  5.11  0.  0.
513  5.12  0.  0.
514  5.13  0.  0.
515  5.14  0.  0.
516  5.15  0.  0.
517  5.16  0.  0.
518  5.17  0.  0.
519  5.18  0.  0.
520  5.19  0.  0.
521  5.20  0.  0.
522  5.21  0.  0.
523  5.22  0.  0.
524  5.23  0.  0.
525  5.24  0.  0.
526  5.25  0.  0.
527  5.26  0.  0.
528  5.27  0.  0.
529  5.28  0.  0.
530  5.29  0.  0.
531  5.30  0.  0.
532  5.31  0.  0.
533  5.32  0.  0.
534  5.33  0.  0.
535  5.34  0.  0.
536  5.35  0.  0.
537  5.36  0.  0.
538  5.37  0.  0.
539  5.38  0.  0.
540  5.39  0.  0.
541  5.40  0.  0.
542  5.41  0.  0.
543  5.42  0.  0.
544  5.43  0.  0.
545  5.44  0.  0.
546  5.45  0.  0.
547  5.46  0.  0.
548  5.47  0.  0.
549  5.48  0.  0.
550  5.49  0.  0.
551  5.50  0.  0.
552  5.51  0.  0.
553  5.52  0.  0.
554  5.53  0.  0.
555  5.54  0.  0.
556  5.55  0.  0.
557  5.56  0.  0.
558  5.57  0.  0.
559  5.58  0.  0.
560  5.59  0.  0.
561  5.60  0.  0.
562  5.61  0.  0.
563  5.62  0.  0.
564  5.63  0.  0.
565  5.64  0.  0.
566  5.65  0.  0.
567  5.66  0.  0.
568  5.67  0.  0.
569  5.68  0.  0.
570  5.69  0.  0.
571  5.70  0.  0.
572  5.71  0.  0.
573  5.72  0.  0.
574  5.73  0.  0.
575  5.74  0.  0.
576  5.75  0.  0.
577  5.76  0.  0.
578  5.77  0.  0.
579  5.78  0.  0.
580  5.79  0.  0.
581  5.80  0.  0.
582  5.81  0.  0.
583  5.82  0.  0.
584  5.83  0.  0.
585  5.84  0.  0.
586  5.85  0.  0.
587  5.86  0.  0.
588  5.87  0.  0.
589  5.88  0.  0.
590  5.89  0.  0.
591  5.90  0.  0.
592  5.91  0.  0.
593  5.92  0.  0.
594  5.93  0.  0.
595  5.94  0.  0.
596  5.95  0.  0.
597  5.96  0.  0.
598  5.97  0.  0.
599  5.98  0.  0.
600  5.99  0.  0.
1                        -5.6505653747534E+00 -1.2484050680062E+00
1  0.0000000000000E+00  1.8647011990058E-09 -8.8135506115528E-09
2  1.0000000000000E-02  2.3304839061386E-03 -2.2270424955455E-03
3  2.0000000000000E-02  9.3085243044801E-03 -8.8831389728340E-03
4  3.0000000000000E-02  2.0893983961158E-02 -1.9893508446612E-02
5  4.0000000000000E-02  3.7020288835546E-02 -3.5134550860574E-02
6  5.0000000000000E-02  5.7594906369741E-02 -5.4435381289834E-02
7  6.0000000000000E-02  8.2500007689545E-02 -7.7579941847159E-02
8  7.0000000000000E-02  1.1159330646070E-01 -1.0430965618173E-01
9  8.0000000000000E-02  1.4470906527941E-01 -1.3432658264564E-01
10  9.0000000000000E-02  1.8165925876170E-01 -1.6729701426569E-01
11  1.0000000000000E-01  2.2223488095939E-01 -2.0285546675532E-01
12  1.1000000000000E-01  2.6620738339484E-01 -2.4060899006654E-01
13  1.2000000000000E-01  3.1333022889189E-01 -2.8014173452460E-01
14  1.3000000000000E-01  3.6334054550125E-01 -3.2101969949211E-01
15  1.4000000000000E-01  4.1596086418613E-01 -3.6279559082702E-01
16  1.5000000000000E-01  4.7090092355328E-01 -4.0501371315602E-01
17  1.6000000000000E-01  5.2785952478608E-01 -4.4721482417248E-01
18  1.7000000000000E-01  5.8652642005655E-01 -4.8894088075132E-01
19  1.8000000000000E-01  6.4658421805181E-01 -5.2973961058462E-01
20  1.9000000000000E-01  7.0771029083425E-01 -5.6916884818622E-01
21  2.0000000000000E-01  7.6957866704588E-01 -6.0680058037219E-01
22  2.1000000000000E-01  8.3186189744292E-01 -6.4222465355011E-01
23  2.2000000000000E-01  8.9423287988241E-01 -6.7505210318172E-01
24  2.3000000000000E-01  9.5636663214962E-01 -7.0491807443720E-01
25  2.4000000000000E-01  1.0179420023832E+00 -7.3148431214180E-01
26  2.5000000000000E-01  1.0786433082930E+00 -7.5444120742411E-01
27  2.6000000000000E-01  1.1381618978384E+00 -7.7350939780192E-01
28  2.7000000000000E-01  1.1961976255158E+00 -7.8844092658013E-01
29  2.8000000000000E-01  1.2524602398505E+00 -7.9901997618338E-01
30  2.9000000000000E-01  1.3066706790832E+00 -8.0506319821116E-01
31  3.0000000000000E-01  1.3585622733427E+00 -8.0641967040613E-01
32  3.1000000000000E-01  1.4078818527879E+00 -8.0297051720571E-01
33  3.2000000000000E-01  1.4543907622578E+00 -7.9462823596281E-01
34  3.3000000000000E-01  1.4978657838662E+00 -7.8133577515721E-01
35  3.4000000000000E-01  1.5380999697084E+00 -7.6306541388728E-01
36  3.5000000000000E-01  1.5749033873999E+00 -7.3981749357238E-01
37  3.6000000000000E-01  1.6081037815277E+00 -7.1161905308040E-01
38  3.7000000000000E-01  1.6375471542781E+00 -6.7852241742722E-01
39  3.8000000000000E-01  1.6630982685033E+00 -6.4060378780788E-01
40  3.9000000000000E-01  1.6846410763103E+00 -5.9796187708045E-01
41  4.0000000000000E-01  1.7020790759310E+00 -5.5071663002825E-01
42  4.1000000000000E-01  1.7153355991526E+00 -4.9900806189675E-01
43  4.2000000000000E-01  1.7243540310003E+00 -4.4299524198853E-01
44  4.3000000000000E-01  1.7290979626796E+00 -3.8285544167246E-01
45  4.4000000000000E-01  1.7295512780353E+00 -3.1878345821254E-01
46  4.5000000000000E-01  1.7257181729981E+00 -2.5099111754957E-01
47  4.6000000000000E-01  1.7176231067034E+00 -1.7970695078961E-01
48  4.7000000000000E-01  1.7053106822041E+00 -1.0517603088444E-01
49  4.8000000000000E-01  1.6888454539970E+00 -2.7659948049154E-02
50  4.9000000000000E-01  1.6683116589740E+00  5.2563104936610E-02
51  5.0000000000000E-01  1.6438128669140E+00  1.3519817305057E-01
52  5.1000000000000E-01  1.6154715462892E+00  2.1993334620147E-01
53  5.2000000000000E-01  1.5834285409765E+00  3.0643957910273E-01
54  5.3000000000000E-01  1.5478424534811E+00  3.9437057306815E-01
55  5.4000000000000E-01  1.5088889304882E+00  4.8336277096283E-01
56  5.5000000000000E-01  1.4667598469845E+00  5.7303551710141E-01
57  5.6000000000000E-01  1.4216623858371E+00  6.6299143294198E-01
58  5.7000000000000E-01  1.3738180105696E+00  7.5281705695535E-01
59  5.8000000000000E-01  1.3234613301489E+00  8.4208379307512E-01
60  5.9000000000000E-01  1.2708388558547E+00  9.3034920670666E-01
61  6.0000000000000E-01  1.2162076517504E+00  1.0171587004806E+00
62  6.1000000000000E-01  1.1598338818664E+00  1.1020475939054E+00
63  6.2000000000000E-01  1.1019912589373E+00  1.1845436219557E+00
64  6.3000000000000E-01  1.0429594013465E+00  1.2641698576163E+00
65  6.4000000000000E-01  9.8302210681240E-01  1.3404480527003E+00
66  6.5000000000000E-01  9.2246555324048E-01  1.4129023800960E+00
67  6.6000000000000E-01  8.6157643903804E-01  1.4810635492352E+00
68  6.7000000000000E-01  8.0064007698891E-01  1.5444732552665E+00
69  6.8000000000000E-01  7.3993845747799E-01  1.6026889114306E+00
70  6.9000000000000E-01  6.7974829839255E-01  1.6552886037400E+00
71  7.0000000000000E-01  6.2033910036882E-01  1.7018761975272E+00
72  7.1000000000000E-01  5.6197122715858E-01  1.7420865169825E+00
73  7.2000000000000E-01  5.0489403172617E-01  1.7755905117047E+00
74  7.3000000000000E-01  4.4934404921904E-01  1.8021003187280E+00
75  7.4000000000000E-01  3.9554327815921E-01  1.8213741246577E+00
76  7.5000000000000E-01  3.4369757105754E-01  1.8332207305919E+00
77  7.6000000000000E-01  2.9399515514374E-01  1.8375037225358E+00
78  7.7000000000000E-01  2.4660530302590E-01  1.8341451521020E+00
79  7.8000000000000E-01  2.0167717184309E-01  1.8231286364653E+00
80  7.9000000000000E-01  1.5933882786256E-01  1.8045017927821E+00
81  8.0000000000000E-01  1.1969647151320E-01  1.7783779305398E+00
82  8.1000000000000E-01  8.2833875563305E-02  1.7449369354596E+00
83  8.2000000000000E-01  4.8812046572360E-02  1.7044252904914E+00
84  8.3000000000000E-01  1.7669116911430E-02  1.6571551929182E+00
85  8.4000000000000E-01 -1.0579528402933E-02  1.6035027414114E+00
86  8.5000000000000E-01 -3.5940889031365E-02  1.5439051827702E+00
87  8.6000000000000E-01 -5.8443753088354E-02  1.4788572247649E+00
88  8.7000000000000E-01 -7.8137873053054E-02  1.4089064386540E+00
89  8.8000000000000E-01 -9.5092922872818E-02  1.3346477922412E+00
90  8.9000000000000E-01 -1.0939724863139E-01  1.2567173714217E+00
91  9.0000000000000E-01 -1.2115642834049E-01  1.1757853647103E+00
92  9.1000000000000E-01 -1.3049165941368E-01  1.0925484008770E+00
93  9.2000000000000E-01 -1.3753799513679E-01  1.0077213442367E+00
94  9.3000000000000E-01 -1.4244245390493E-01  9.2202866499945E-01
95  9.4000000000000E-01 -1.4536202710227E-01  8.3619551312379E-01
96  9.5000000000000E-01 -1.4646161321328E-01  7.5093863304689E-01
97  9.6000000000000E-01 -1.4591190703412E-01  6.6695726328151E-01
98  9.7000000000000E-01 -1.4388727367129E-01  5.8492416897923E-01
99  9.8000000000000E-01 -1.4056363734861E-01  5.0547695703632E-01
100  9.9000000000000E-01 -1.3611641488075E-01  4.2920982207261E-01
101  1.0000000000000E+00 -1.3071852300640E-01  3.5666586761475E-01
102  1.0100000000000E+00 -1.2453848761420E-01  2.8833014008320E-01
103  1.0200000000000E+00 -1.1773868125399E-01  2.2462350380634E-01
104  1.0300000000000E+00 -1.1047371322769E-01  1.6589747337215E-01
105  1.0400000000000E+00 -1.0288899403306E-01  1.1243010538303E-01
106  1.0500000000000E+00 -9.5119493034374E-02  6.4423035341384E-02
107  1.0600000000000E+00 -8.7288704995989E-02  2.1999727189530E-02
108  1.0700000000000E+00 -7.9507837608904E-02 -1.4795016647889E-02
109  1.0800000000000E+00 -7.1875228417376E-02 -4.5994257727293E-02
110  1.0900000000000E+00 -6.4475995679376E-02 -7.1706831222259E-02
111  1.1000000000000E+00 -5.7381923757479E-02 -9.2113979372629E-02
112  1.1100000000000E+00 -5.0651579675709E-02 -1.0746474743903E-01
113  1.1200000000000E+00 -4.4330653609726E-02 -1.1807020233046E-01
114  1.1300000000000E+00 -3.8452512325362E-02 -1.2429655482795E-01
115  1.1400000000000E+00 -3.3038951063262E-02 -1.2655728569370E-01
116  1.1500000000000E+00 -2.8101126104502E-02 -1.2530439380849E-01
117  1.1600000000000E+00 -2.3640647349363E-02 -1.2101890023007E-01
118  1.1700000000000E+00 -1.9650807711579E-02 -1.1420075562365E-01
119  1.1800000000000E+00 -1.6117924062338E-02 -1.0535830939209E-01
120  1.1900000000000E+00 -1.3022762915988E-02 -9.4997506543210E-02
121  1.2000000000000E+00 -1.0342021625340E-02 -8.3610993309128E-02
122  1.2100000000000E+00 -8.0498434005372E-03 -7.1667255130480E-02
123  1.2200000000000E+00 -6.1188600634055E-03 -5.9603440609462E-02
124  1.2300000000000E+00 -4.5198107977744E-03 -4.7828522347424E-02
125  1.2400000000000E+00 -3.2215907583368E-03 -3.6722439147352E-02
126  1.2500000000000E+00 -2.1850410374881E-03 -2.6667870536849E-02
127  1.2600000000000E+00 -1.3795395511849E-03 -1.7960414711765E-02
128  1.2700000000000E+00 -7.8178621453270E-04 -1.0812264250189E-02
129  1.2800000000000E+00 -3.6854068649373E-04 -5.3901280318009E-03
130  1.2900000000000E+00 -1.1731615043090E-04 -1.8052949126098E-03
131  1.3000000000000E+00 -9.9725354835894E-06 -1.6107094398430E-04
132  1.3100000000000E+00  7.3320532131292E-07  1.2185235004365E-05
133  1.3200000000000E+00  2.5042080692907E-08  3.9655738096865E-07
134  1.33  0. -0.
135  1.34  0.  0.
136  1.35  0.  0.
137  1.36  0.  0.
138  1.37  0.  0.
139  1.38  0.  0.
140  1.39  0.  0.
141  1.40  0.  0.
142  1.41  0.  0.
143  1.42  0.  0.
144  1.43  0.  0.
145  1.44  0.  0.
146  1.45  0.  0.
147  1.46  0.  0.
148  1.47  0.  0.
149  1.48  0.  0.
150  1.49  0.  0.
151  1.50  0.  0.
152  1.51  0.  0.
153  1.52  0.  0.
154  1.53  0.  0.
155  1.54  0.  0.
156  1.55  0.  0.
157  1.56  0.  0.
158  1.57  0.  0.
159  1.58  0.  0.
160  1.59  0.  0.
161  1.60  0.  0.
162  1.61  0.  0.
163  1.62  0.  0.
164  1.63  0.  0.
165  1.64  0.  0.
166  1.65  0.  0.
167  1.66  0.  0.
168  1.67  0.  0.
169  1.68  0.  0.
170  1.69  0.  0.
171  1.70  0.  0.
172  1.71  0.  0.
173  1.72  0.  0.
174  1.73  0.  0.
175  1.74  0.  0.
176  1.75  0.  0.
177  1.76  0.  0.
178  1.77  0.  0.
179  1.78  0.  0.
180  1.79  0.  0.
181  1.80  0.  0.
182  1.81  0.  0.
183  1.82  0.  0.
184  1.83  0.  0.
185  1.84  0.  0.
186  1.85  0.  0.
187  1.86  0.  0.
188  1.87  0.  0.
189  1.88  0.  0.
190  1.89  0.  0.
191  1.90  0.  0.
192  1.91  0.  0.
193  1.92  0.  0.
194  1.93  0.  0.
195  1.94  0.  0.
196  1.95  0.  0.
197  1.96  0.  0.
198  1.97  0.  0.
199  1.98  0.  0.
200  1.99  0.  0.
201  2.00  0.  0.
202  2.01  0.  0.
203  2.02  0.  0.
204  2.03  0.  0.
205  2.04  0.  0.
206  2.05  0.  0.
207  2.06  0.  0.
208  2.07  0.  0.
209  2.08  0.  0.
210  2.09  0.  0.
211  2.10  0.  0.
212  2.11  0.  0.
213  2.12  0.  0.
214  2.13  0.  0.
215  2.14  0.  0.
216  2.15  0.  0.
217  2.16  0.  0.
218  2.17  0.  0.
219  2.18  0.  0.
220  2.19  0.  0.
221  2.20  0.  0.
222  2.21  0.  0.
223  2.22  0.  0.
224  2.23  0.  0.
225  2.24  0.  0.
226  2.25  0.  0.
227  2.26  0.  0.
228  2.27  0.  0.
229  2.28  0.  0.
230  2.29  0.  0.
231  2.30  0.  0.
232  2.31  0.  0.
233  2.32  0.  0.
234  2.33  0.  0.
235  2.34  0.  0.
236  2.35  0.  0.
237  2.36  0.  0.
238  2.37  0.  0.
239  2.38  0.  0.
240  2.39  0.  0.
241  2.40  0.  0.
242  2.41  0.  0.
243  2.42  0.  0.
244  2.43  0.  0.
245  2.44  0.  0.
246  2.45  0.  0.
247  2.46  0.  0.
248  2.47  0.  0.
249  2.48  0.  0.
250  2.49  0.  0.
251  2.50  0.  0.
252  2.51  0.  0.
253  2.52  0.  0.
254  2.53  0.  0.
255  2.54  0.  0.
256  2.55  0.  0.
257  2.56  0.  0.
258  2.57  0.  0.
259  2.58  0.  0.
260  2.59  0.  0.
261  2.60  0.  0.
262  2.61  0.  0.
263  2.62  0.  0.
264  2.63  0.  0.
265  2.64  0.  0.
266  2.65  0.  0.
267  2.66  0.  0.
268  2.67  0.  0.
269  2.68  0.  0.
270  2.69  0.  0.
271  2.70  0.  0.
272  2.71  0.  0.
273  2.72  0.  0.
274  2.73  0.  0.
275  2.74  0.  0.
276  2.75  0.  0.
277  2.76  0.  0.
278  2.77  0.  0.
279  2.78  0.  0.
280  2.79  0.  0.
281  2.80  0.  0.
282  2.81  0.  0.
283  2.82  0.  0.
284  2.83  0.  0.
285  2.84  0.  0.
286  2.85  0.  0.
287  2.86  0.  0.
288  2.87  0.  0.
289  2.88  0.  0.
290  2.89  0.  0.
291  2.90  0.  0.
292  2.91  0.  0.
293  2.92  0.  0.
294  2.93  0.  0.
295  2.94  0.  0.
296  2.95  0.  0.
297  2.96  0.  0.
298  2.97  0.  0.
299  2.98  0.  0.
300  2.99  0.  0.
301  3.00  0.  0.
302  3.01  0.  0.
303  3.02  0.  0.
304  3.03  0.  0.
305  3.04  0.  0.
306  3.05  0.  0.
307  3.06  0.  0.
308  3.07  0.  0.
309  3.08  0.  0.
310  3.09  0.  0.
311  3.10  0.  0.
312  3.11  0.  0.
313  3.12  0.  0.
314  3.13  0.  0.
315  3.14  0.  0.
316  3.15  0.  0.
317  3.16  0.  0.
318  3.17  0.  0.
319  3.18  0.  0.
320  3.19  0.  0.
321  3.20  0.  0.
322  3.21  0.  0.
323  3.22  0.  0.
324  3.23  0.  0.
325  3.24  0.  0.
326  3.25  0.  0.
327  3.26  0.  0.
328  3.27  0.  0.
329  3.28  0.  0.
330  3.29  0.  0.
331  3.30  0.  0.
332  3.31  0.  0.
333  3.32  0.  0.
334  3.33  0.  0.
335  3.34  0.  0.
336  3.35  0.  0.
337  3.36  0.  0.
338  3.37  0.  0.
339  3.38  0.  0.
340  3.39  0.  0.
341  3.40  0.  0.
342  3.41  0.  0.
343  3.42  0.  0.
344  3.43  0.  0.
345  3.44  0.  0.
346  3.45  0.  0.
347  3.46  0.  0.
348  3.47  0.  0.
349  3.48  0.  0.
350  3.49  0.  0.
351  3.50  0.  0.
352  3.51  0.  0.
353  3.52  0.  0.
354  3.53  0.  0.
355  3.54  0.  0.
356  3.55  0.  0.
357  3.56  0.  0.