Li    ONCVPSP-4.0.1  r_core=   2.20882   2.20882
3.0000      1.0000      220330    zatom,zion,pspd
8      11   1     4   400     0    pspcod,pspxc,lmax,lloc,mmax,r2well
3.99000000  5.00000000  0.00000000    rchrg fchrg qchrg
2     2     0     0     0    nproj
1     1           extension_switch
0                        -5.9777944008512E-01  2.5532249550816E-01
1  0.0000000000000E+00  2.1261587976329E-11  7.6821687899908E-11
2  1.0000000000000E-02  9.0337846962830E-04 -1.9299055952951E-02
3  2.0000000000000E-02  1.8294266055546E-03 -3.8531097094588E-02
4  3.0000000000000E-02  2.8006969422133E-03 -5.7629525058248E-02
5  4.0000000000000E-02  3.8395085358465E-03 -7.6528571506607E-02
6  5.0000000000000E-02  4.9678321838407E-03 -9.5163706015943E-02
7  6.0000000000000E-02  6.2071779790877E-03 -1.1347203545846E-01
8  7.0000000000000E-02  7.5784859526587E-03 -1.3139269213924E-01
9  8.0000000000000E-02  9.1020205368197E-03 -1.4886720802110E-01
10  9.0000000000000E-02  1.0797269554105E-02 -1.6583987246593E-01
11  1.0000000000000E-01  1.2682848406985E-02 -1.8225807103347E-01
12  1.1000000000000E-01  1.4776410106803E-02 -1.9807260300831E-01
13  1.2000000000000E-01  1.7094561740371E-02 -2.1323797547130E-01
14  1.3000000000000E-01  1.9652787928170E-02 -2.2771267189226E-01
15  1.4000000000000E-01  2.2465381779774E-02 -2.4145939339553E-01
16  1.5000000000000E-01  2.5545383800252E-02 -2.5444527103711E-01
17  1.6000000000000E-01  2.8904529146233E-02 -2.6664204763158E-01
18  1.7000000000000E-01  3.2553203572431E-02 -2.7802622787568E-01
19  1.8000000000000E-01  3.6500408349017E-02 -2.8857919573422E-01
20  1.9000000000000E-01  4.0753734367919E-02 -2.9828729827895E-01
21  2.0000000000000E-01  4.5319345591991E-02 -3.0714189540286E-01
22  2.1000000000000E-01  5.0201971935857E-02 -3.1513937506798E-01
23  2.2000000000000E-01  5.5404911601180E-02 -3.2228113398347E-01
24  2.3000000000000E-01  6.0930042822828E-02 -3.2857352385044E-01
25  2.4000000000000E-01  6.6777844916223E-02 -3.3402776354930E-01
26  2.5000000000000E-01  7.2947428450560E-02 -3.3865981788267E-01
27  2.6000000000000E-01  7.9436574307982E-02 -3.4249024372071E-01
28  2.7000000000000E-01  8.6241781325718E-02 -3.4554400462369E-01
29  2.8000000000000E-01  9.3358322156937E-02 -3.4785025523863E-01
30  2.9000000000000E-01  1.0078030692716E-01 -3.4944209697985E-01
31  3.0000000000000E-01  1.0850075420696E-01 -3.5035630670689E-01
32  3.1000000000000E-01  1.1651166876837E-01 -3.5063304030560E-01
33  3.2000000000000E-01  1.2480412554329E-01 -3.5031551325783E-01
34  3.3000000000000E-01  1.3336835915578E-01 -3.4944966045165E-01
35  3.4000000000000E-01  1.4219385835915E-01 -3.4808377763460E-01
36  3.5000000000000E-01  1.5126946467114E-01 -3.4626814704811E-01
37  3.6000000000000E-01  1.6058347446837E-01 -3.4405464989893E-01
38  3.7000000000000E-01  1.7012374377359E-01 -3.4149636842411E-01
39  3.8000000000000E-01  1.7987779494706E-01 -3.3864718038740E-01
40  3.9000000000000E-01  1.8983292447663E-01 -3.3556134890765E-01
41  4.0000000000000E-01  1.9997631104929E-01 -3.3229311056232E-01
42  4.1000000000000E-01  2.1029512308167E-01 -3.2889626473217E-01
43  4.2000000000000E-01  2.2077662488635E-01 -3.2542376715481E-01
44  4.3000000000000E-01  2.3140828065679E-01 -3.2192733063723E-01
45  4.4000000000000E-01  2.4217785546483E-01 -3.1845703583828E-01
46  4.5000000000000E-01  2.5307351248161E-01 -3.1506095497323E-01
47  4.6000000000000E-01  2.6408390565554E-01 -3.1178479121332E-01
48  4.7000000000000E-01  2.7519826710875E-01 -3.0867153645489E-01
49  4.8000000000000E-01  2.8640648854691E-01 -3.0576115001469E-01
50  4.9000000000000E-01  2.9769919601585E-01 -3.0309026067197E-01
51  5.0000000000000E-01  3.0906781738177E-01 -3.0069189432455E-01
52  5.1000000000000E-01  3.2050464195983E-01 -2.9859522935559E-01
53  5.2000000000000E-01  3.3200287176853E-01 -2.9682538162197E-01
54  5.3000000000000E-01  3.4355666394369E-01 -2.9540322077514E-01
55  5.4000000000000E-01  3.5516116390595E-01 -2.9434521941165E-01
56  5.5000000000000E-01  3.6681252893947E-01 -2.9366333632530E-01
57  5.6000000000000E-01  3.7850794190584E-01 -2.9336493489724E-01
58  5.7000000000000E-01  3.9024561488624E-01 -2.9345273741589E-01
59  5.8000000000000E-01  4.0202478261598E-01 -2.9392481586633E-01
60  5.9000000000000E-01  4.1384568564829E-01 -2.9477461947174E-01
61  6.0000000000000E-01  4.2570954325798E-01 -2.9599103900757E-01
62  6.1000000000000E-01  4.3761851617028E-01 -2.9755850764570E-01
63  6.2000000000000E-01  4.4957565927472E-01 -2.9945713782131E-01
64  6.3000000000000E-01  4.6158486455846E-01 -3.0166289335274E-01
65  6.4000000000000E-01  4.7365079456688E-01 -3.0414779578408E-01
66  6.5000000000000E-01  4.8577880677190E-01 -3.0688016366584E-01
67  6.6000000000000E-01  4.9797486929847E-01 -3.0982488324037E-01
68  6.7000000000000E-01  5.1024546852847E-01 -3.1294370875858E-01
69  6.8000000000000E-01  5.2259750916632E-01 -3.1619559042442E-01
70  6.9000000000000E-01  5.3503820741309E-01 -3.1953702774545E-01
71  7.0000000000000E-01  5.4757497795437E-01 -3.2292244586240E-01
72  7.1000000000000E-01  5.6021531552201E-01 -3.2630459223991E-01
73  7.2000000000000E-01  5.7296667183943E-01 -3.2963495092707E-01
74  7.3000000000000E-01  5.8583632880599E-01 -3.3286417143870E-01
75  7.4000000000000E-01  5.9883126881544E-01 -3.3594250917096E-01
76  7.5000000000000E-01  6.1195804313839E-01 -3.3882027414573E-01
77  7.6000000000000E-01  6.2522263932708E-01 -3.4144828478154E-01
78  7.7000000000000E-01  6.3863034862384E-01 -3.4377832331239E-01
79  7.8000000000000E-01  6.5218563437052E-01 -3.4576358942257E-01
80  7.9000000000000E-01  6.6589200242657E-01 -3.4735914863518E-01
81  8.0000000000000E-01  6.7975187460656E-01 -3.4852237198544E-01
82  8.1000000000000E-01  6.9376646614474E-01 -3.4921336352585E-01
83  8.2000000000000E-01  7.0793566818408E-01 -3.4939537225210E-01
84  8.3000000000000E-01  7.2225793627070E-01 -3.4903518510255E-01
85  8.4000000000000E-01  7.3673018581083E-01 -3.4810349777253E-01
86  8.5000000000000E-01  7.5134769541747E-01 -3.4657526019750E-01
87  8.6000000000000E-01  7.6610401903718E-01 -3.4442999369273E-01
88  8.7000000000000E-01  7.8099090770450E-01 -3.4165207689553E-01
89  8.8000000000000E-01  7.9599824172228E-01 -3.3823099783402E-01
90  8.9000000000000E-01  8.1111397401082E-01 -3.3416156964699E-01
91  9.0000000000000E-01  8.2632408530868E-01 -3.2944410769706E-01
92  9.1000000000000E-01  8.4161255184082E-01 -3.2408456605886E-01
93  9.2000000000000E-01  8.5696132600003E-01 -3.1809463161621E-01
94  9.3000000000000E-01  8.7235033051076E-01 -3.1149177427466E-01
95  9.4000000000000E-01  8.8775746646558E-01 -3.0429925207829E-01
96  9.5000000000000E-01  9.0315863554060E-01 -2.9654607031738E-01
97  9.6000000000000E-01  9.1852777660970E-01 -2.8826689401964E-01
98  9.7000000000000E-01  9.3383691688805E-01 -2.7950191353414E-01
99  9.8000000000000E-01  9.4905623764395E-01 -2.7029666323930E-01
100  9.9000000000000E-01  9.6415415442466E-01 -2.6070179373308E-01
101  1.0000000000000E+00  9.7909741164821E-01 -2.5077279819362E-01
102  1.0100000000000E+00  9.9385119131765E-01 -2.4056969392948E-01
103  1.0200000000000E+00  1.0083792355211E+00 -2.3015666046448E-01
104  1.0300000000000E+00  1.0226439822856E+00 -2.1960163583145E-01
105  1.0400000000000E+00  1.0366067142607E+00 -2.0897587306344E-01
106  1.0500000000000E+00  1.0502277196186E+00 -1.9835345918439E-01
107  1.0600000000000E+00  1.0634664644671E+00 -1.8781079930172E-01
108  1.0700000000000E+00  1.0762817759874E+00 -1.7742606868951E-01
109  1.0800000000000E+00  1.0886320354291E+00 -1.6727863602723E-01
110  1.0900000000000E+00  1.1004753800142E+00 -1.5744846121556E-01
111  1.1000000000000E+00  1.1117699127319E+00 -1.4801547142963E-01
112  1.1100000000000E+00  1.1224739189377E+00 -1.3905891929036E-01
113  1.1200000000000E+00  1.1325460886073E+00 -1.3065672723351E-01
114  1.1300000000000E+00  1.1419457430423E+00 -1.2288482232845E-01
115  1.1400000000000E+00  1.1506330647734E+00 -1.1581646595091E-01
116  1.1500000000000E+00  1.1585693293657E+00 -1.0952158283742E-01
117  1.1600000000000E+00  1.1657171377947E+00 -1.0406609414765E-01
118  1.1700000000000E+00  1.1720406480350E+00 -9.9511259228146E-02
119  1.1800000000000E+00  1.1775058044818E+00 -9.5913030813530E-02
120  1.1900000000000E+00  1.1820805638147E+00 -9.3321428413208E-02
121  1.2000000000000E+00  1.1857351159101E+00 -9.1779934607981E-02
122  1.2100000000000E+00  1.1884420984091E+00 -9.1324918940379E-02
123  1.2200000000000E+00  1.1901768035648E+00 -9.1985093995315E-02
124  1.2300000000000E+00  1.1909173760100E+00 -9.3781008162288E-02
125  1.2400000000000E+00  1.1906450001156E+00 -9.6724579433301E-02
126  1.2500000000000E+00  1.1893440756488E+00 -1.0081867441657E-01
127  1.2600000000000E+00  1.1870023804835E+00 -1.0605673655246E-01
128  1.2700000000000E+00  1.1836112191652E+00 -1.1242246729411E-01
129  1.2800000000000E+00  1.1791655561993E+00 -1.1988956375850E-01
130  1.2900000000000E+00  1.1736641329912E+00 -1.2842151607859E-01
131  1.3000000000000E+00  1.1671095674458E+00 -1.3797146738771E-01
132  1.3100000000000E+00  1.1595084353124E+00 -1.4848213903287E-01
133  1.3200000000000E+00  1.1508713324474E+00 -1.5988582328064E-01
134  1.3300000000000E+00  1.1412129172598E+00 -1.7210444540228E-01
135  1.3400000000000E+00  1.1305519327019E+00 -1.8504969664286E-01
136  1.3500000000000E+00  1.1189112072672E+00 -1.9862323919235E-01
137  1.3600000000000E+00  1.1063176345680E+00 -2.1271698384529E-01
138  1.3700000000000E+00  1.0928021311672E+00 -2.2721344062994E-01
139  1.3800000000000E+00  1.0783995724595E+00 -2.4198614224596E-01
140  1.3900000000000E+00  1.0631487065024E+00 -2.5690013971682E-01
141  1.4000000000000E+00  1.0470920458228E+00 -2.7181256921670E-01
142  1.4100000000000E+00  1.0302757373317E+00 -2.8657328859512E-01
143  1.4200000000000E+00  1.0127494106077E+00 -3.0102558166997E-01
144  1.4300000000000E+00  9.9456600491647E-01 -3.1500692793360E-01
145  1.4400000000000E+00  9.7578157545883E-01 -3.2834983486939E-01
146  1.4500000000000E+00  9.5645507944641E-01 -3.4088272966668E-01
147  1.4600000000000E+00  9.3664814272361E-01 -3.5243090669398E-01
148  1.4700000000000E+00  9.1642480775884E-01 -3.6281752670099E-01
149  1.4800000000000E+00  8.9585126393758E-01 -3.7186466332762E-01
150  1.4900000000000E+00  8.7499556119091E-01 -3.7939439213515E-01
151  1.5000000000000E+00  8.5392730809291E-01 -3.8522991702156E-01
152  1.5100000000000E+00  8.3271735565108E-01 -3.8919672856461E-01
153  1.5200000000000E+00  8.1143746810559E-01 -3.9112378852365E-01
154  1.5300000000000E+00  7.9015998213159E-01 -3.9084473446431E-01
155  1.5400000000000E+00  7.6895745591914E-01 -3.8819909820737E-01
156  1.5500000000000E+00  7.4790230967015E-01 -3.8303353159715E-01
157  1.5600000000000E+00  7.2706645911974E-01 -3.7520303287458E-01
158  1.5700000000000E+00  7.0652094374042E-01 -3.6457216679627E-01
159  1.5800000000000E+00  6.8633555134028E-01 -3.5101627149551E-01
160  1.5900000000000E+00  6.6657844080227E-01 -3.3442264500508E-01
161  1.6000000000000E+00  6.4731576475105E-01 -3.1469170427634E-01
162  1.6100000000000E+00  6.2861129395246E-01 -2.9173810952714E-01
163  1.6200000000000E+00  6.1052604527367E-01 -2.6549184673988E-01
164  1.6300000000000E+00  5.9311791503820E-01 -2.3589926118688E-01
165  1.6400000000000E+00  5.7644131961324E-01 -2.0292403493502E-01
166  1.6500000000000E+00  5.6054684505806E-01 -1.6654810140600E-01
167  1.6600000000000E+00  5.4548090765073E-01 -1.2677249021161E-01
168  1.6700000000000E+00  5.3128542708476E-01 -8.3618095686405E-02
169  1.6800000000000E+00  5.1799751409988E-01 -3.7126362757041E-02
170  1.6900000000000E+00  5.0564917426969E-01  1.2640115935361E-02
171  1.7000000000000E+00  4.9426702962723E-01  6.5597097455929E-02
172  1.7100000000000E+00  4.8387205975284E-01  1.2163828598446E-01
173  1.7200000000000E+00  4.7447936388947E-01  1.8063503528699E-01
174  1.7300000000000E+00  4.6609794558240E-01  2.4243616091077E-01
175  1.7400000000000E+00  4.5873052126463E-01  3.0686786631300E-01
176  1.7500000000000E+00  4.5237335412767E-01  3.7373378664896E-01
177  1.7600000000000E+00  4.4701611452724E-01  4.4281515341844E-01
178  1.7700000000000E+00  4.4264176807701E-01  5.1387108260724E-01
179  1.7800000000000E+00  4.3922649248158E-01  5.8663898836591E-01
180  1.7900000000000E+00  4.3673962404919E-01  6.6083512362874E-01
181  1.8000000000000E+00  4.3514363470774E-01  7.3615524839998E-01
182  1.8100000000000E+00  4.3439414022631E-01  8.1227542572671E-01
183  1.8200000000000E+00  4.3443994021075E-01  8.8885294461334E-01
184  1.8300000000000E+00  4.3522309031176E-01  9.6552736836279E-01
185  1.8400000000000E+00  4.3667900693312E-01  1.0419217059710E+00
186  1.8500000000000E+00  4.3873660458461E-01  1.1176437033523E+00
187  1.8600000000000E+00  4.4131846586424E-01  1.1922872502448E+00
188  1.8700000000000E+00  4.4434104389127E-01  1.2654338976920E+00
189  1.8800000000000E+00  4.4771489684480E-01  1.3366544800042E+00
190  1.8900000000000E+00  4.5134495408246E-01  1.4055108340505E+00
191  1.9000000000000E+00  4.5513081313328E-01  1.4715576076506E+00
192  1.9100000000000E+00  4.5896706666720E-01  1.5343441477000E+00
193  1.9200000000000E+00  4.6274365835222E-01  1.5934164575032E+00
194  1.9300000000000E+00  4.6634626629999E-01  1.6483192115335E+00
195  1.9400000000000E+00  4.6965671259884E-01  1.6985978146014E+00
196  1.9500000000000E+00  4.7255339721584E-01  1.7438004910876E+00
197  1.9600000000000E+00  4.7491175432916E-01  1.7834803885380E+00
198  1.9700000000000E+00  4.7660472892972E-01  1.8171976785319E+00
199  1.9800000000000E+00  4.7750327129575E-01  1.8445216362529E+00
200  1.9900000000000E+00  4.7747684672137E-01  1.8650326787827E+00
201  2.0000000000000E+00  4.7639395763352E-01  1.8783243405361E+00
202  2.0100000000000E+00  4.7412267500035E-01  1.8840051627494E+00
203  2.0200000000000E+00  4.7053117569583E-01  1.8817004723362E+00
204  2.0300000000000E+00  4.6548828224896E-01  1.8710540238210E+00
205  2.0400000000000E+00  4.5886400116778E-01  1.8517294763896E+00
206  2.0500000000000E+00  4.5053005581041E-01  1.8234116765284E+00
207  2.0600000000000E+00  4.4036040836203E-01  1.7858077101968E+00
208  2.0700000000000E+00  4.2823177596132E-01  1.7386477305561E+00
209  2.0800000000000E+00  4.1402410355145E-01  1.6816853919677E+00
210  2.0900000000000E+00  3.9762105201528E-01  1.6146981138405E+00
211  2.1000000000000E+00  3.7891049971685E-01  1.5374871698026E+00
212  2.1100000000000E+00  3.5778614280941E-01  1.4498818452153E+00
213  2.1200000000000E+00  3.3414625791295E-01  1.3517318502062E+00
214  2.1300000000000E+00  3.0789302924041E-01  1.2429018544814E+00
215  2.1400000000000E+00  2.7893411330151E-01  1.1232748324793E+00
216  2.1500000000000E+00  2.4718273707404E-01  9.9274889672809E-01
217  2.1600000000000E+00  2.1255791508757E-01  8.5123427522729E-01
218  2.1700000000000E+00  1.7496774809604E-01  6.9858339316145E-01
219  2.1800000000000E+00  1.3428938377617E-01  5.3450740215664E-01
220  2.1900000000000E+00  9.2004157822155E-02  3.6500050686355E-01
221  2.2000000000000E+00  3.9814275864531E-02  1.5755635278626E-01
222  2.2100000000000E+00 -2.2380908563410E-03 -8.8515757765747E-03
223  2.2200000000000E+00 -2.0379749157387E-03 -8.0565667705514E-03
224  2.23  0.  0.
225  2.24 -0. -0.
226  2.25 -0. -0.
227  2.26 -0. -0.
228  2.27  0.  0.
229  2.28  0.  0.
230  2.29  0.  0.
231  2.30  0.  0.
232  2.31  0.  0.
233  2.32  0.  0.
234  2.33  0.  0.
235  2.34  0.  0.
236  2.35  0.  0.
237  2.36  0.  0.
238  2.37  0.  0.
239  2.38  0.  0.
240  2.39  0.  0.
241  2.40  0.  0.
242  2.41  0.  0.
243  2.42  0.  0.
244  2.43  0.  0.
245  2.44  0.  0.
246  2.45  0.  0.
247  2.46  0.  0.
248  2.47  0.  0.
249  2.48  0.  0.
250  2.49  0.  0.
251  2.50  0.  0.
252  2.51  0.  0.
253  2.52  0.  0.
254  2.53  0.  0.
255  2.54  0.  0.
256  2.55  0.  0.
257  2.56  0.  0.
258  2.57  0.  0.
259  2.58  0.  0.
260  2.59  0.  0.
261  2.60  0.  0.
262  2.61  0.  0.
263  2.62  0.  0.
264  2.63  0.  0.
265  2.64  0.  0.
266  2.65  0.  0.
267  2.66  0.  0.
268  2.67  0.  0.
269  2.68  0.  0.
270  2.69  0.  0.
271  2.70  0.  0.
272  2.71  0.  0.
273  2.72  0.  0.
274  2.73  0.  0.
275  2.74  0.  0.
276  2.75  0.  0.
277  2.76  0.  0.
278  2.77  0.  0.
279  2.78  0.  0.
280  2.79  0.  0.
281  2.80  0.  0.
282  2.81  0.  0.
283  2.82  0.  0.
284  2.83  0.  0.
285  2.84  0.  0.
286  2.85  0.  0.
287  2.86  0.  0.
288  2.87  0.  0.
289  2.88  0.  0.
290  2.89  0.  0.
291  2.90  0.  0.
292  2.91  0.  0.
293  2.92  0.  0.
294  2.93  0.  0.
295  2.94  0.  0.
296  2.95  0.  0.
297  2.96  0.  0.
298  2.97  0.  0.
299  2.98  0.  0.
300  2.99  0.  0.
301  3.00  0.  0.
302  3.01  0.  0.
303  3.02  0.  0.
304  3.03  0.  0.
305  3.04  0.  0.
306  3.05  0.  0.
307  3.06  0.  0.
308  3.07  0.  0.
309  3.08  0.  0.
310  3.09  0.  0.
311  3.10  0.  0.
312  3.11  0.  0.
313  3.12  0.  0.
314  3.13  0.  0.
315  3.14  0.  0.
316  3.15  0.  0.
317  3.16  0.  0.
318  3.17  0.  0.
319  3.18  0.  0.
320  3.19  0.  0.
321  3.20  0.  0.
322  3.21  0.  0.
323  3.22  0.  0.
324  3.23  0.  0.
325  3.24  0.  0.
326  3.25  0.  0.
327  3.26  0.  0.
328  3.27  0.  0.
329  3.28  0.  0.
330  3.29  0.  0.
331  3.30  0.  0.
332  3.31  0.  0.
333  3.32  0.  0.
334  3.33  0.  0.
335  3.34  0.  0.
336  3.35  0.  0.
337  3.36  0.  0.
338  3.37  0.  0.
339  3.38  0.  0.
340  3.39  0.  0.
341  3.40  0.  0.
342  3.41  0.  0.
343  3.42  0.  0.
344  3.43  0.  0.
345  3.44  0.  0.
346  3.45  0.  0.
347  3.46  0.  0.
348  3.47  0.  0.
349  3.48  0.  0.
350  3.49  0.  0.
351  3.50  0.  0.
352  3.51  0.  0.
353  3.52  0.  0.
354  3.53  0.  0.
355  3.54  0.  0.
356  3.55  0.  0.
357  3.56  0.  0.
358  3.57  0.  0.
359  3.58  0.  0.
360  3.59  0.  0.
361  3.60  0.  0.
362  3.61  0.  0.
363  3.62  0.  0.
364  3.63  0.  0.
365  3.64  0.  0.
366  3.65  0.  0.
367  3.66  0.  0.
368  3.67  0.  0.
369  3.68  0.  0.
370  3.69  0.  0.
371  3.70  0.  0.
372  3.71  0.  0.
373  3.72  0.  0.
374  3.73  0.  0.
375  3.74  0.  0.
376  3.75  0.  0.
377  3.76  0.  0.
378  3.77  0.  0.
379  3.78  0.  0.
380  3.79  0.  0.
381  3.80  0.  0.
382  3.81  0.  0.
383  3.82  0.  0.
384  3.83  0.  0.
385  3.84  0.  0.
386  3.85  0.  0.
387  3.86  0.  0.
388  3.87  0.  0.
389  3.88  0.  0.
390  3.89  0.  0.
391  3.90  0.  0.
392  3.91  0.  0.
393  3.92  0.  0.
394  3.93  0.  0.
395  3.94  0.  0.
396  3.95  0.  0.
397  3.96  0.  0.
398  3.97  0.  0.
399  3.98  0.  0.
400  3.99  0.  0.
1                        -3.8930761725641E+00 -1.2875310997363E+00
1  0.0000000000000E+00  1.4638026901714E-11 -1.2068044480396E-11
2  1.0000000000000E-02  7.0865280692727E-04 -3.5051353808474E-04
3  2.0000000000000E-02  2.8331126850940E-03 -1.4009117961371E-03
4  3.0000000000000E-02  6.3688873197897E-03 -3.1477705130921E-03
5  4.0000000000000E-02  1.1308500556182E-02 -5.5853919395512E-03
6  5.0000000000000E-02  1.7641508927931E-02 -8.7058188450798E-03
7  6.0000000000000E-02  2.5354524745424E-02 -1.2498854085882E-02
8  7.0000000000000E-02  3.4431245691956E-02 -1.6952085690404E-02
9  8.0000000000000E-02  4.4852490861541E-02 -2.2050917408363E-02
10  9.0000000000000E-02  5.6596243157550E-02 -2.7778604656689E-02
11  1.0000000000000E-01  6.9637697957054E-02 -3.4116295784082E-02
12  1.1000000000000E-01  8.3949317931554E-02 -4.1043078563981E-02
13  1.2000000000000E-01  9.9500893900834E-02 -4.8536031814169E-02
14  1.3000000000000E-01  1.1625961158293E-01 -5.6570282029680E-02
15  1.4000000000000E-01  1.3419012408970E-01 -6.5119064904306E-02
16  1.5000000000000E-01  1.5325463000439E-01 -7.4153791604829E-02
17  1.6000000000000E-01  1.7341295686453E-01 -8.3644119651085E-02
18  1.7000000000000E-01  1.9462264986111E-01 -9.3558028244201E-02
19  1.8000000000000E-01  2.1683906555277E-01 -1.0386189787481E-01
20  1.9000000000000E-01  2.4001547038181E-01 -1.1452059403275E-01
21  2.0000000000000E-01  2.6410314376786E-01 -1.2549755482982E-01
22  2.1000000000000E-01  2.8905148554348E-01 -1.3675488233736E-01
23  2.2000000000000E-01  3.1480812748636E-01 -1.4825343743118E-01
24  2.3000000000000E-01  3.4131904869210E-01 -1.5995293792736E-01
25  2.4000000000000E-01  3.6852869452264E-01 -1.7181205978365E-01
26  2.5000000000000E-01  3.9638009885648E-01 -1.8378854113329E-01
27  2.6000000000000E-01  4.2481500935837E-01 -1.9583928891005E-01
28  2.7000000000000E-01  4.5377401547885E-01 -2.0792048781606E-01
29  2.8000000000000E-01  4.8319667888680E-01 -2.1998771137714E-01
30  2.9000000000000E-01  5.1302166603183E-01 -2.3199603482418E-01
31  3.0000000000000E-01  5.4318688252781E-01 -2.4390014953312E-01
32  3.1000000000000E-01  5.7362960904378E-01 -2.5565447875103E-01
33  3.2000000000000E-01  6.0428663838433E-01 -2.6721329433110E-01
34  3.3000000000000E-01  6.3509441343802E-01 -2.7853083419551E-01
35  3.4000000000000E-01  6.6598916566975E-01 -2.8956142024156E-01
36  3.5000000000000E-01  6.9690705383103E-01 -3.0025957640391E-01
37  3.6000000000000E-01  7.2778430256096E-01 -3.1058014658376E-01
38  3.7000000000000E-01  7.5855734055058E-01 -3.2047841215459E-01
39  3.8000000000000E-01  7.8916293794341E-01 -3.2991020875316E-01
40  3.9000000000000E-01  8.1953834264686E-01 -3.3883204206523E-01
41  4.0000000000000E-01  8.4962141523070E-01 -3.4720120231580E-01
42  4.1000000000000E-01  8.7935076209265E-01 -3.5497587717580E-01
43  4.2000000000000E-01  9.0866586657410E-01 -3.6211526279948E-01
44  4.3000000000000E-01  9.3750721771449E-01 -3.6857967270996E-01
45  4.4000000000000E-01  9.6581643633801E-01 -3.7433064425464E-01
46  4.5000000000000E-01  9.9353639817274E-01 -3.7933104235702E-01
47  4.6000000000000E-01  1.0206113537097E+00 -3.8354516029687E-01
48  4.7000000000000E-01  1.0469870445175E+00 -3.8693881725773E-01
49  4.8000000000000E-01  1.0726108157362E+00 -3.8947945238736E-01
50  4.9000000000000E-01  1.0974317244856E+00 -3.9113621512519E-01
51  5.0000000000000E-01  1.1214006439311E+00 -3.9188005155960E-01
52  5.1000000000000E-01  1.1444703627638E+00 -3.9168378658714E-01
53  5.2000000000000E-01  1.1665956798617E+00 -3.9052220165654E-01
54  5.3000000000000E-01  1.1877334939122E+00 -3.8837210789094E-01
55  5.4000000000000E-01  1.2078428877894E+00 -3.8521241439366E-01
56  5.5000000000000E-01  1.2268852074937E+00 -3.8102419155523E-01
57  5.6000000000000E-01  1.2448241354742E+00 -3.7579072919218E-01
58  5.7000000000000E-01  1.2616257581730E+00 -3.6949758936169E-01
59  5.8000000000000E-01  1.2772586276403E+00 -3.6213265371040E-01
60  5.9000000000000E-01  1.2916938170917E+00 -3.5368616523020E-01
61  6.0000000000000E-01  1.3049049702906E+00 -3.4415076430861E-01
62  6.1000000000000E-01  1.3168683446573E+00 -3.3352151897740E-01
63  6.2000000000000E-01  1.3275628480235E+00 -3.2179594927821E-01
64  6.3000000000000E-01  1.3369700689684E+00 -3.0897404568064E-01
65  6.4000000000000E-01  1.3450743006885E+00 -2.9505828150412E-01
66  6.5000000000000E-01  1.3518625583733E+00 -2.8005361931199E-01
67  6.6000000000000E-01  1.3573245900761E+00 -2.6396751126227E-01
68  6.7000000000000E-01  1.3614528810840E+00 -2.4680989341685E-01
69  6.8000000000000E-01  1.3642426518148E+00 -2.2859317402744E-01
70  6.9000000000000E-01  1.3656918492806E+00 -2.0933221583315E-01
71  7.0000000000000E-01  1.3658011321781E+00 -1.8904431242140E-01
72  7.1000000000000E-01  1.3645738496830E+00 -1.6774915872026E-01
73  7.2000000000000E-01  1.3620160140424E+00 -1.4546881570626E-01
74  7.3000000000000E-01  1.3581362670749E+00 -1.2222766942788E-01
75  7.4000000000000E-01  1.3529458407069E+00 -9.8052384460214E-02
76  7.5000000000000E-01  1.3464585116860E+00 -7.2971851921550E-02
77  7.6000000000000E-01  1.3386905506321E+00 -4.7017132196997E-02
78  7.7000000000000E-01  1.3296606655967E+00 -2.0221392528586E-02
79  7.8000000000000E-01  1.3193899403198E+00  7.3801603554601E-03
80  7.9000000000000E-01  1.3079017673826E+00  3.5750352386696E-02
81  8.0000000000000E-01  1.2952217764730E+00  6.4850118879970E-02
82  8.1000000000000E-01  1.2813777579857E+00  9.4638585625426E-02
83  8.2000000000000E-01  1.2663995821967E+00  1.2507315412936E-01
84  8.3000000000000E-01  1.2503191142581E+00  1.5610959077452E-01
85  8.4000000000000E-01  1.2331701252697E+00  1.8770211966149E-01
86  8.5000000000000E-01  1.2149881996950E+00  2.1980351888503E-01
87  8.6000000000000E-01  1.1958106393916E+00  2.5236521999162E-01
88  8.7000000000000E-01  1.1756763645396E+00  2.8533741035902E-01
89  8.8000000000000E-01  1.1546258117504E+00  3.1866913823279E-01
90  8.9000000000000E-01  1.1327008296499E+00  3.5230842015086E-01
91  9.0000000000000E-01  1.1099445722271E+00  3.8620235048385E-01
92  9.1000000000000E-01  1.0864013902486E+00  4.2029721281656E-01
93  9.2000000000000E-01  1.0621167210363E+00  4.5453859289468E-01
94  9.3000000000000E-01  1.0371369769078E+00  4.8887149286049E-01
95  9.4000000000000E-01  1.0115094325810E+00  5.2324044650177E-01
96  9.5000000000000E-01  9.8528211183996E-01  5.5758963523972E-01
97  9.6000000000000E-01  9.5850367375899E-01  5.9186300458414E-01
98  9.7000000000000E-01  9.3122329877838E-01  6.2600438078723E-01
99  9.8000000000000E-01  9.0349057492094E-01  6.5995758743155E-01
100  9.9000000000000E-01  8.7535538443391E-01  6.9366656169269E-01
101  1.0000000000000E+00  8.4686779113512E-01  7.2707547002261E-01
102  1.0100000000000E+00  8.1807792873527E-01  7.6012882300619E-01
103  1.0200000000000E+00  7.8903589040162E-01  7.9277158915037E-01
104  1.0300000000000E+00  7.5979161981943E-01  8.2494930737294E-01
105  1.0400000000000E+00  7.3039480399963E-01  8.5660819796614E-01
106  1.0500000000000E+00  7.0089476807112E-01  8.8769527181893E-01
107  1.0600000000000E+00  6.7134037228653E-01  9.1815843769060E-01
108  1.0700000000000E+00  6.4177991145976E-01  9.4794660733795E-01
109  1.0800000000000E+00  6.1226101704247E-01  9.7700979830800E-01
110  1.0900000000000E+00  5.8283056203568E-01  1.0052992342176E+00
111  1.1000000000000E+00  5.5353456892052E-01  1.0327674423517E+00
112  1.1100000000000E+00  5.2441812078067E-01  1.0593683484228E+00
113  1.1200000000000E+00  4.9552527577643E-01  1.0850573683412E+00
114  1.1300000000000E+00  4.6689898511824E-01  1.1097914968608E+00
115  1.1400000000000E+00  4.3858101467492E-01  1.1335293929697E+00
116  1.1500000000000E+00  4.1061187033942E-01  1.1562314619081E+00
117  1.1600000000000E+00  3.8303072726243E-01  1.1778599337039E+00
118  1.1700000000000E+00  3.5587536305179E-01  1.1983789381256E+00
119  1.1800000000000E+00  3.2918209502332E-01  1.2177545759615E+00
120  1.1900000000000E+00  3.0298572157689E-01  1.2359549865417E+00
121  1.2000000000000E+00  2.7731946775927E-01  1.2529504114274E+00
122  1.2100000000000E+00  2.5221493506431E-01  1.2687132541993E+00
123  1.2200000000000E+00  2.2770205550941E-01  1.2832181362843E+00
124  1.2300000000000E+00  2.0380905001665E-01  1.2964419487641E+00
125  1.2400000000000E+00  1.8056239111648E-01  1.3083639001173E+00
126  1.2500000000000E+00  1.5798676998195E-01  1.3189655598491E+00
127  1.2600000000000E+00  1.3610506779202E-01  1.3282308979677E+00
128  1.2700000000000E+00  1.1493833141350E-01  1.3361463202722E+00
129  1.2800000000000E+00  9.4505753382818E-02  1.3427006994149E+00
130  1.2900000000000E+00  7.4824656160754E-02  1.3478854017090E+00
131  1.3000000000000E+00  5.5910480626234E-02  1.3516943096500E+00
132  1.3100000000000E+00  3.7776778768116E-02  1.3541238401207E+00
133  1.3200000000000E+00  2.0435210527979E-02  1.3551729582539E+00
134  1.3300000000000E+00  3.8955447410405E-03  1.3548431869210E+00
135  1.3400000000000E+00 -1.1834335882754E-02  1.3531386118185E+00
136  1.3500000000000E+00 -2.6748425800120E-02  1.3500658821222E+00
137  1.3600000000000E+00 -4.0842583765038E-02  1.3456342066765E+00
138  1.3700000000000E+00 -5.4114516119090E-02  1.3398553456857E+00
139  1.3800000000000E+00 -6.6563756315201E-02  1.3327435978715E+00
140  1.3900000000000E+00 -7.8191640751396E-02  1.3243157830590E+00
141  1.4000000000000E+00 -8.9001280993585E-02  1.3145912201517E+00
142  1.4100000000000E+00 -9.8997532468655E-02  1.3035917004521E+00
143  1.4200000000000E+00 -1.0818695971099E-01  1.2913414562851E+00
144  1.4300000000000E+00 -1.1657779824725E-01  1.2778671248762E+00
145  1.4400000000000E+00 -1.2417991320578E-01  1.2631977074384E+00
146  1.4500000000000E+00 -1.3100475473844E-01  1.2473645234161E+00
147  1.4600000000000E+00 -1.3706531034392E-01  1.2304011598384E+00
148  1.4700000000000E+00 -1.4237605418316E-01  1.2123434157291E+00
149  1.4800000000000E+00 -1.4695289347876E-01  1.1932292415260E+00
150  1.4900000000000E+00 -1.5081311209190E-01  1.1730986734585E+00
151  1.5000000000000E+00 -1.5397531137206E-01  1.1519937628397E+00
152  1.5100000000000E+00 -1.5645934837671E-01  1.1299585002289E+00
153  1.5200000000000E+00 -1.5828627156062E-01  1.1070387344251E+00
154  1.5300000000000E+00 -1.5947825403688E-01  1.0832820862609E+00
155  1.5400000000000E+00 -1.6005852451484E-01  1.0587378571687E+00
156  1.5500000000000E+00 -1.6005129602369E-01  1.0334569325035E+00
157  1.5600000000000E+00 -1.5948169253433E-01  1.0074916796124E+00
158  1.5700000000000E+00 -1.5837567359670E-01  9.8089584065749E-01
159  1.5800000000000E+00 -1.5675995711486E-01  9.5372442020594E-01
160  1.5900000000000E+00 -1.5466194038765E-01  9.2603356762136E-01
161  1.6000000000000E+00 -1.5210961954907E-01  8.9788045430320E-01
162  1.6100000000000E+00 -1.4913150754951E-01  8.6932314584132E-01
163  1.6200000000000E+00 -1.4575655082628E-01  8.4042046917226E-01
164  1.6300000000000E+00 -1.4201404482010E-01  8.1123187484610E-01
165  1.6400000000000E+00 -1.3793354850296E-01  7.8181729453656E-01
166  1.6500000000000E+00 -1.3354479809198E-01  7.5223699395283E-01
167  1.6600000000000E+00 -1.2887762013396E-01  7.2255142133937E-01
168  1.6700000000000E+00 -1.2396184415524E-01  6.9282105177925E-01
169  1.6800000000000E+00 -1.1882721508304E-01  6.6310622754801E-01
170  1.6900000000000E+00 -1.1350330565483E-01  6.3346699479818E-01
171  1.7000000000000E+00 -1.0801942904448E-01  6.0396293688903E-01
172  1.7100000000000E+00 -1.0240455194536E-01  5.7465300471288E-01
173  1.7200000000000E+00 -9.6687208362635E-02  5.4559534440679E-01
174  1.7300000000000E+00 -9.0895414378784E-02  5.1684712287811E-01