Li    ONCVPSP-4.0.1  r_core=   1.40189   1.10355
3.0000      3.0000      220329    zatom,zion,pspd
8      11   1     4   400     0    pspcod,pspxc,lmax,lloc,mmax,r2well
3.99000000  0.00000000  0.00000000    rchrg fchrg qchrg
2     2     0     0     0    nproj
1     1           extension_switch
0                        -4.9157716140368E+00 -1.4840825057099E+00
1  0.0000000000000E+00  1.6909706967994E-09 -4.8163465993234E-09
2  1.0000000000000E-02  9.0815300776993E-02 -3.4881208298207E-02
3  2.0000000000000E-02  1.8139361728175E-01 -6.9578677896035E-02
4  3.0000000000000E-02  2.7149812017361E-01 -1.0390775588902E-01
5  4.0000000000000E-02  3.6089230606932E-01 -1.3768201009433E-01
6  5.0000000000000E-02  4.4934020030899E-01 -1.7071246095893E-01
7  6.0000000000000E-02  5.3660660622163E-01 -2.0280695577778E-01
8  7.0000000000000E-02  6.2245741434587E-01 -2.3376972683601E-01
9  8.0000000000000E-02  7.0665998337053E-01 -2.6340117027280E-01
10  9.0000000000000E-02  7.8898360252103E-01 -2.9149787665769E-01
11  1.0000000000000E-01  8.6920004277862E-01 -3.1785293760890E-01
12  1.1000000000000E-01  9.4708420173501E-01 -3.4225654542168E-01
13  1.2000000000000E-01  1.0224148441151E+00 -3.6449689478731E-01
14  1.3000000000000E-01  1.0949754371110E+00 -3.8436138745314E-01
15  1.4000000000000E-01  1.1645550767297E+00 -4.0163813229667E-01
16  1.5000000000000E-01  1.2309494984315E+00 -4.1611772495945E-01
17  1.6000000000000E-01  1.2939621625027E+00 -4.2759528310729E-01
18  1.7000000000000E-01  1.3534054019245E+00 -4.3587270574686E-01
19  1.8000000000000E-01  1.4091016180420E+00 -4.4076111801736E-01
20  1.9000000000000E-01  1.4608845071573E+00 -4.4208345666296E-01
21  2.0000000000000E-01  1.5086002993343E+00 -4.3967714612963E-01
22  2.1000000000000E-01  1.5521089892378E+00 -4.3339681105254E-01
23  2.2000000000000E-01  1.5912855377999E+00 -4.2311696791737E-01
24  2.3000000000000E-01  1.6260210229206E+00 -4.0873463697252E-01
25  2.4000000000000E-01  1.6562237172980E+00 -3.9017181509530E-01
26  2.5000000000000E-01  1.6818200718577E+00 -3.6737775129760E-01
27  2.6000000000000E-01  1.7027555840997E+00 -3.4033096888939E-01
28  2.7000000000000E-01  1.7189955320026E+00 -3.0904098196699E-01
29  2.8000000000000E-01  1.7305255558941E+00 -2.7354965878802E-01
30  2.9000000000000E-01  1.7373520728755E+00 -2.3393219064517E-01
31  3.0000000000000E-01  1.7395025109423E+00 -1.9029763193101E-01
32  3.1000000000000E-01  1.7370253528180E+00 -1.4278898505276E-01
33  3.2000000000000E-01  1.7299899826570E+00 -9.1582812540749E-02
34  3.3000000000000E-01  1.7184863321085E+00 -3.6888367913643E-02
35  3.4000000000000E-01  1.7026243257039E+00  2.1053753582080E-02
36  3.5000000000000E-01  1.6825331290522E+00  8.1973433556585E-02
37  3.6000000000000E-01  1.6583602068395E+00  1.4557329798340E-01
38  3.7000000000000E-01  1.6302702010419E+00  2.1153140392162E-01
39  3.8000000000000E-01  1.5984436430169E+00  2.7950430694450E-01
40  3.9000000000000E-01  1.5630755161493E+00  3.4913046266407E-01
41  4.0000000000000E-01  1.5243736884497E+00  4.2003390852472E-01
42  4.1000000000000E-01  1.4825572368536E+00  4.9182816587372E-01
43  4.2000000000000E-01  1.4378546869144E+00  5.6412029734760E-01
44  4.3000000000000E-01  1.3905021930691E+00  6.3651505095925E-01
45  4.4000000000000E-01  1.3407416856509E+00  7.0861902002441E-01
46  4.5000000000000E-01  1.2888190113057E+00  7.8004474728738E-01
47  4.6000000000000E-01  1.2349820934216E+00  8.5041470232580E-01
48  4.7000000000000E-01  1.1794791386107E+00  9.1936506352896E-01
49  4.8000000000000E-01  1.1225569141863E+00  9.8654923961791E-01
50  4.9000000000000E-01  1.0644591199934E+00  1.0516410707407E+00
51  5.0000000000000E-01  1.0054248758918E+00  1.1143376555329E+00
52  5.1000000000000E-01  9.4568734371725E-01  1.1743617580542E+00
53  5.2000000000000E-01  8.8547249969649E-01  1.2314637570411E+00
54  5.3000000000000E-01  8.2499807013077E-01  1.2854231092747E+00
55  5.4000000000000E-01  7.6447263976025E-01  1.3360493088584E+00
56  5.5000000000000E-01  7.0409493864416E-01  1.3831823346097E+00
57  5.6000000000000E-01  6.4405330972093E-01  1.4266925883817E+00
58  5.7000000000000E-01  5.8452535552453E-01  1.4664803377037E+00
59  5.8000000000000E-01  5.2567775890957E-01  1.5024746864399E+00
60  5.9000000000000E-01  4.6766626915543E-01  1.5346321069826E+00
61  6.0000000000000E-01  4.1063584155612E-01  1.5629345766052E+00
62  6.1000000000000E-01  3.5472091562807E-01  1.5873873687918E+00
63  6.2000000000000E-01  3.0004581444863E-01  1.6080165574560E+00
64  6.3000000000000E-01  2.4672524543161E-01  1.6248662977915E+00
65  6.4000000000000E-01  1.9486488110132E-01  1.6379959519317E+00
66  6.5000000000000E-01  1.4456199718340E-01  1.6474771305204E+00
67  6.6000000000000E-01  9.5906144615992E-02  1.6533907226442E+00
68  6.7000000000000E-01  4.8979831917218E-02  1.6558239863045E+00
69  6.8000000000000E-01  3.8591947273831E-03  1.6548677697074E+00
70  6.9000000000000E-01 -3.9385369729790E-02  1.6506139301576E+00
71  7.0000000000000E-01 -8.0688624072452E-02  1.6431530123218E+00
72  7.1000000000000E-01 -1.1998998693612E-01  1.6325722411773E+00
73  7.2000000000000E-01 -1.5723312037042E-01  1.6189538772187E+00
74  7.3000000000000E-01 -1.9236562213905E-01  1.6023739726169E+00
75  7.4000000000000E-01 -2.2533883347963E-01  1.5829015572074E+00
76  7.5000000000000E-01 -2.5610776949028E-01  1.5605982726297E+00
77  7.6000000000000E-01 -2.8463117573030E-01  1.5355184618868E+00
78  7.7000000000000E-01 -3.1087171093450E-01  1.5077097102777E+00
79  7.8000000000000E-01 -3.3479625203015E-01  1.4772138223335E+00
80  7.9000000000000E-01 -3.5637631399474E-01  1.4440682083110E+00
81  8.0000000000000E-01 -3.7558857359010E-01  1.4083076432117E+00
82  8.1000000000000E-01 -3.9241548273249E-01  1.3699663514570E+00
83  8.2000000000000E-01 -4.0684595429013E-01  1.3290803614674E+00
84  8.3000000000000E-01 -4.1887610050887E-01  1.2856900667029E+00
85  8.4000000000000E-01 -4.2851000211855E-01  1.2398429233818E+00
86  8.5000000000000E-01 -4.3576048452215E-01  1.1915962102880E+00
87  8.6000000000000E-01 -4.4064987636027E-01  1.1410197729167E+00
88  8.7000000000000E-01 -4.4321072520966E-01  1.0881986727884E+00
89  8.8000000000000E-01 -4.4348644523508E-01  1.0332356631456E+00
90  8.9000000000000E-01 -4.4153187227800E-01  9.7625341443907E-01
91  9.0000000000000E-01 -4.3741370312640E-01  9.1739641700541E-01
92  9.1000000000000E-01 -4.3121079754999E-01  8.5683249405352E-01
93  9.2000000000000E-01 -4.2301432407109E-01  7.9475386543463E-01
94  9.3000000000000E-01 -4.1292773333034E-01  7.3137771151654E-01
95  9.4000000000000E-01 -4.0106654624210E-01  6.6694619665658E-01
96  9.5000000000000E-01 -3.8755794785019E-01  6.0172592306398E-01
97  9.6000000000000E-01 -3.7254018181631E-01  5.3600679803439E-01
98  9.7000000000000E-01 -3.5616174471687E-01  4.7010031037775E-01
99  9.8000000000000E-01 -3.3858038370047E-01  4.0433722507457E-01
100  9.9000000000000E-01 -3.1996190547673E-01  3.3906471851569E-01
101  1.0000000000000E+00 -3.0047880896981E-01  2.7464298981151E-01
102  1.0100000000000E+00 -2.8030875818306E-01  2.1144139632092E-01
103  1.0200000000000E+00 -2.5963291579260E-01  1.4983417347067E-01
104  1.0300000000000E+00 -2.3863416162768E-01  9.0195809848690E-02
105  1.0400000000000E+00 -2.1749522341831E-01  3.2896158203664E-02
106  1.0500000000000E+00 -1.9639674992588E-01 -2.1704628841722E-02
107  1.0600000000000E+00 -1.7551535874976E-01 -7.3261243057548E-02
108  1.0700000000000E+00 -1.5502169266776E-01 -1.2144834489240E-01
109  1.0800000000000E+00 -1.3507851928052E-01 -1.6596556511590E-01
110  1.0900000000000E+00 -1.1583890896028E-01 -2.0654228049640E-01
111  1.1000000000000E+00 -9.7444525050480E-02 -2.4294206383931E-01
112  1.1100000000000E+00 -8.0024055685760E-02 -2.7496672511061E-01
113  1.1200000000000E+00 -6.3691520589139E-02 -3.0246096845328E-01
114  1.1300000000000E+00 -4.8544391392162E-02 -3.2531785441542E-01
115  1.1400000000000E+00 -3.4662370987214E-02 -3.4348189430053E-01
116  1.1500000000000E+00 -2.2106574135471E-02 -3.5695083817243E-01
117  1.1600000000000E+00 -1.0918979891462E-02 -3.6577667166930E-01
118  1.1700000000000E+00 -1.1221699536532E-03 -3.7006578002767E-01
119  1.1800000000000E+00  7.2806387257875E-03 -3.6997825566354E-01
120  1.1900000000000E+00  1.4305263624296E-02 -3.6572633999114E-01
121  1.2000000000000E+00  1.9985930518873E-02 -3.5757200612565E-01
122  1.2100000000000E+00  2.4374358752747E-02 -3.4582370494581E-01
123  1.2200000000000E+00  2.7538570343567E-02 -3.3083231256037E-01
124  1.2300000000000E+00  2.9561440484895E-02 -3.1298633245154E-01
125  1.2400000000000E+00  3.0539011752473E-02 -2.9270641968434E-01
126  1.2500000000000E+00  3.0578598804532E-02 -2.7043930791880E-01
127  1.2600000000000E+00  2.9796714270010E-02 -2.4665123152133E-01
128  1.2700000000000E+00  2.8316849980837E-02 -2.2182094536193E-01
129  1.2800000000000E+00  2.6267150497858E-02 -1.9643245315565E-01
130  1.2900000000000E+00  2.3778017973396E-02 -1.7096756137034E-01
131  1.3000000000000E+00  2.0979688865681E-02 -1.4589838008012E-01
132  1.3100000000000E+00  1.7999822994729E-02 -1.2167989189465E-01
133  1.3200000000000E+00  1.4961150925149E-02 -9.8742727158846E-02
134  1.3300000000000E+00  1.1979200877950E-02 -7.7486206100416E-02
135  1.3400000000000E+00  9.1610659172199E-03 -5.8274645682275E-02
136  1.3500000000000E+00  6.6027273259412E-03 -4.1429233742420E-02
137  1.3600000000000E+00  4.3849684882702E-03 -2.7215369853838E-02
138  1.3700000000000E+00  2.5742643664068E-03 -1.5845525529031E-02
139  1.3800000000000E+00  1.2218140764293E-03 -7.4774862331193E-03
140  1.3900000000000E+00  3.5830393946188E-04 -2.1855407770058E-03
141  1.4000000000000E+00  1.6484496083317E-05 -1.0030354556466E-04
142  1.4100000000000E+00 -6.3519120975457E-07  3.8699097439854E-06
143  1.4200000000000E+00 -2.3578600626826E-07  1.4389077896878E-06
144  1.43 -0.  0.
145  1.44  0.  0.
146  1.45  0.  0.
147  1.46  0.  0.
148  1.47  0.  0.
149  1.48  0.  0.
150  1.49  0.  0.
151  1.50  0.  0.
152  1.51  0.  0.
153  1.52  0.  0.
154  1.53  0.  0.
155  1.54  0.  0.
156  1.55  0.  0.
157  1.56  0.  0.
158  1.57  0.  0.
159  1.58  0.  0.
160  1.59  0.  0.
161  1.60  0.  0.
162  1.61  0.  0.
163  1.62  0.  0.
164  1.63  0.  0.
165  1.64  0.  0.
166  1.65  0.  0.
167  1.66  0.  0.
168  1.67  0.  0.
169  1.68  0.  0.
170  1.69  0.  0.
171  1.70  0.  0.
172  1.71  0.  0.
173  1.72  0.  0.
174  1.73  0.  0.
175  1.74  0.  0.
176  1.75  0.  0.
177  1.76  0.  0.
178  1.77  0.  0.
179  1.78  0.  0.
180  1.79  0.  0.
181  1.80  0.  0.
182  1.81  0.  0.
183  1.82  0.  0.
184  1.83  0.  0.
185  1.84  0.  0.
186  1.85  0.  0.
187  1.86  0.  0.
188  1.87  0.  0.
189  1.88  0.  0.
190  1.89  0.  0.
191  1.90  0.  0.
192  1.91  0.  0.
193  1.92  0.  0.
194  1.93  0.  0.
195  1.94  0.  0.
196  1.95  0.  0.
197  1.96  0.  0.
198  1.97  0.  0.
199  1.98  0.  0.
200  1.99  0.  0.
201  2.00  0.  0.
202  2.01  0.  0.
203  2.02  0.  0.
204  2.03  0.  0.
205  2.04  0.  0.
206  2.05  0.  0.
207  2.06  0.  0.
208  2.07  0.  0.
209  2.08  0.  0.
210  2.09  0.  0.
211  2.10  0.  0.
212  2.11  0.  0.
213  2.12  0.  0.
214  2.13  0.  0.
215  2.14  0.  0.
216  2.15  0.  0.
217  2.16  0.  0.
218  2.17  0.  0.
219  2.18  0.  0.
220  2.19  0.  0.
221  2.20  0.  0.
222  2.21  0.  0.
223  2.22  0.  0.
224  2.23  0.  0.
225  2.24  0.  0.
226  2.25  0.  0.
227  2.26  0.  0.
228  2.27  0.  0.
229  2.28  0.  0.
230  2.29  0.  0.
231  2.30  0.  0.
232  2.31  0.  0.
233  2.32  0.  0.
234  2.33  0.  0.
235  2.34  0.  0.
236  2.35  0.  0.
237  2.36  0.  0.
238  2.37  0.  0.
239  2.38  0.  0.
240  2.39  0.  0.
241  2.40  0.  0.
242  2.41  0.  0.
243  2.42  0.  0.
244  2.43  0.  0.
245  2.44  0.  0.
246  2.45  0.  0.
247  2.46  0.  0.
248  2.47  0.  0.
249  2.48  0.  0.
250  2.49  0.  0.
251  2.50  0.  0.
252  2.51  0.  0.
253  2.52  0.  0.
254  2.53  0.  0.
255  2.54  0.  0.
256  2.55  0.  0.
257  2.56  0.  0.
258  2.57  0.  0.
259  2.58  0.  0.
260  2.59  0.  0.
261  2.60  0.  0.
262  2.61  0.  0.
263  2.62  0.  0.
264  2.63  0.  0.
265  2.64  0.  0.
266  2.65  0.  0.
267  2.66  0.  0.
268  2.67  0.  0.
269  2.68  0.  0.
270  2.69  0.  0.
271  2.70  0.  0.
272  2.71  0.  0.
273  2.72  0.  0.
274  2.73  0.  0.
275  2.74  0.  0.
276  2.75  0.  0.
277  2.76  0.  0.
278  2.77  0.  0.
279  2.78  0.  0.
280  2.79  0.  0.
281  2.80  0.  0.
282  2.81  0.  0.
283  2.82  0.  0.
284  2.83  0.  0.
285  2.84  0.  0.
286  2.85  0.  0.
287  2.86  0.  0.
288  2.87  0.  0.
289  2.88  0.  0.
290  2.89  0.  0.
291  2.90  0.  0.
292  2.91  0.  0.
293  2.92  0.  0.
294  2.93  0.  0.
295  2.94  0.  0.
296  2.95  0.  0.
297  2.96  0.  0.
298  2.97  0.  0.
299  2.98  0.  0.
300  2.99  0.  0.
301  3.00  0.  0.
302  3.01  0.  0.
303  3.02  0.  0.
304  3.03  0.  0.
305  3.04  0.  0.
306  3.05  0.  0.
307  3.06  0.  0.
308  3.07  0.  0.
309  3.08  0.  0.
310  3.09  0.  0.
311  3.10  0.  0.
312  3.11  0.  0.
313  3.12  0.  0.
314  3.13  0.  0.
315  3.14  0.  0.
316  3.15  0.  0.
317  3.16  0.  0.
318  3.17  0.  0.
319  3.18  0.  0.
320  3.19  0.  0.
321  3.20  0.  0.
322  3.21  0.  0.
323  3.22  0.  0.
324  3.23  0.  0.
325  3.24  0.  0.
326  3.25  0.  0.
327  3.26  0.  0.
328  3.27  0.  0.
329  3.28  0.  0.
330  3.29  0.  0.
331  3.30  0.  0.
332  3.31  0.  0.
333  3.32  0.  0.
334  3.33  0.  0.
335  3.34  0.  0.
336  3.35  0.  0.
337  3.36  0.  0.
338  3.37  0.  0.
339  3.38  0.  0.
340  3.39  0.  0.
341  3.40  0.  0.
342  3.41  0.  0.
343  3.42  0.  0.
344  3.43  0.  0.
345  3.44  0.  0.
346  3.45  0.  0.
347  3.46  0.  0.
348  3.47  0.  0.
349  3.48  0.  0.
350  3.49  0.  0.
351  3.50  0.  0.
352  3.51  0.  0.
353  3.52  0.  0.
354  3.53  0.  0.
355  3.54  0.  0.
356  3.55  0.  0.
357  3.56  0.  0.
358  3.57  0.  0.
359  3.58  0.  0.
360  3.59  0.  0.
361  3.60  0.  0.
362  3.61  0.  0.
363  3.62  0.  0.
364  3.63  0.  0.
365  3.64  0.  0.
366  3.65  0.  0.
367  3.66  0.  0.
368  3.67  0.  0.
369  3.68  0.  0.
370  3.69  0.  0.
371  3.70  0.  0.
372  3.71  0.  0.
373  3.72  0.  0.
374  3.73  0.  0.
375  3.74  0.  0.
376  3.75  0.  0.
377  3.76  0.  0.
378  3.77  0.  0.
379  3.78  0.  0.
380  3.79  0.  0.
381  3.80  0.  0.
382  3.81  0.  0.
383  3.82  0.  0.
384  3.83  0.  0.
385  3.84  0.  0.
386  3.85  0.  0.
387  3.86  0.  0.
388  3.87  0.  0.
389  3.88  0.  0.
390  3.89  0.  0.
391  3.90  0.  0.
392  3.91  0.  0.
393  3.92  0.  0.
394  3.93  0.  0.
395  3.94  0.  0.
396  3.95  0.  0.
397  3.96  0.  0.
398  3.97  0.  0.
399  3.98  0.  0.
400  3.99  0.  0.
1                        -2.6637165986281E+00 -6.5480679169111E-01
1  0.0000000000000E+00  5.6418024030336E-07 -6.6256464020809E-07
2  1.0000000000000E-02  9.0963355654323E-03 -7.8899364216103E-03
3  2.0000000000000E-02  3.6096476577340E-02 -3.1228157462103E-02
4  3.0000000000000E-02  8.0144399977011E-02 -6.9032355079390E-02
5  4.0000000000000E-02  1.3984825213913E-01 -1.1970640925204E-01
6  5.0000000000000E-02  2.1333125779184E-01 -1.8110037799691E-01
7  6.0000000000000E-02  2.9830030873327E-01 -2.5059134432218E-01
8  7.0000000000000E-02  3.9212966976080E-01 -3.2518212115373E-01
9  8.0000000000000E-02  4.9195667504894E-01 -4.0161415270784E-01
10  9.0000000000000E-02  5.9478584125538E-01 -4.7649042390738E-01
11  1.0000000000000E-01  6.9759751060093E-01 -5.4640381770768E-01
12  1.1000000000000E-01  7.9745696974155E-01 -6.0806615732505E-01
13  1.2000000000000E-01  8.9161997461532E-01 -6.5843314375745E-01
14  1.3000000000000E-01  9.7763074809635E-01 -6.9482054952944E-01
15  1.4000000000000E-01  1.0534088009850E+00 -7.1500735157388E-01
16  1.5000000000000E-01  1.1173213468631E+00 -7.1732196752806E-01
17  1.6000000000000E-01  1.1682386217892E+00 -7.0070838251316E-01
18  1.7000000000000E-01  1.2055700603384E+00 -6.6476969450841E-01
19  1.8000000000000E-01  1.2292799960252E+00 -6.0978743820026E-01
20  1.9000000000000E-01  1.2398823197706E+00 -5.3671593883983E-01
21  2.0000000000000E-01  1.2384143160839E+00 -4.4715186616848E-01
22  2.1000000000000E-01  1.2263906736059E+00 -3.4328006993775E-01
23  2.2000000000000E-01  1.2057394055563E+00 -2.2779764934184E-01
24  2.3000000000000E-01  1.1787220889187E+00 -1.0381900677766E-01
25  2.4000000000000E-01  1.1478414138231E+00  2.5234667516554E-02
26  2.5000000000000E-01  1.1157395049893E+00  1.5575746462714E-01
27  2.6000000000000E-01  1.0850908179407E+00  2.8408794386122E-01
28  2.7000000000000E-01  1.0584936115557E+00  4.0664074365301E-01
29  2.8000000000000E-01  1.0383640483280E+00  5.2003583725171E-01
30  2.9000000000000E-01  1.0268368729652E+00  6.2122074324422E-01
31  3.0000000000000E-01  1.0256763728372E+00  7.0758126120960E-01
32  3.1000000000000E-01  1.0362009399159E+00  7.7703672390175E-01
33  3.2000000000000E-01  1.0592240479299E+00  8.2811632330691E-01
34  3.3000000000000E-01  1.0950138497147E+00  8.6001375744199E-01
35  3.4000000000000E-01  1.1432729111573E+00  8.7261823211668E-01
36  3.5000000000000E-01  1.2031388556014E+00  8.6652070785559E-01
37  3.6000000000000E-01  1.2732059238764E+00  8.4299517516778E-01
38  3.7000000000000E-01  1.3515666888915E+00  8.0395563856723E-01
39  3.8000000000000E-01  1.4358724284001E+00  7.5189035842070E-01
40  3.9000000000000E-01  1.5234099822112E+00  6.8977570830806E-01
41  4.0000000000000E-01  1.6111923256195E+00  6.2097272500477E-01
42  4.1000000000000E-01  1.6960596007095E+00  5.4911003278841E-01
43  4.2000000000000E-01  1.7747869790329E+00  4.7795729228134E-01
44  4.3000000000000E-01  1.8441954958496E+00  4.1129364037167E-01
45  4.4000000000000E-01  1.9012619054347E+00  3.5277574152705E-01
46  4.5000000000000E-01  1.9432236612938E+00  3.0581005770226E-01
47  4.6000000000000E-01  1.9676753214496E+00  2.7343376588971E-01
48  4.7000000000000E-01  1.9726530089517E+00  2.5820841706394E-01
49  4.8000000000000E-01  1.9567040081583E+00  2.6212995142359E-01
50  4.9000000000000E-01  1.9189391305088E+00  2.8655808118403E-01
51  5.0000000000000E-01  1.8590661180851E+00  3.3216734686657E-01
52  5.1000000000000E-01  1.7774030450561E+00  3.9892137271763E-01
53  5.2000000000000E-01  1.6748713999754E+00  4.8607102068934E-01
54  5.3000000000000E-01  1.5529692588010E+00  5.9217630081098E-01
55  5.4000000000000E-01  1.4137256624957E+00  7.1515106947437E-01
56  5.5000000000000E-01  1.2596379683268E+00  8.5232876590983E-01
57  5.6000000000000E-01  1.0935945268118E+00  1.0005467286739E+00
58  5.7000000000000E-01  9.1878552590489E-01  1.1562460229942E+00
59  5.8000000000000E-01  7.3860522349827E-01  1.3155832170771E+00
60  5.9000000000000E-01  5.5654904595706E-01  1.4745501870773E+00
61  6.0000000000000E-01  3.7610915634441E-01  1.6290978172654E+00
62  6.1000000000000E-01  2.0067208837282E-01  1.7752593993723E+00
63  6.2000000000000E-01  3.3421903172827E-02  1.9092696228382E+00
64  6.3000000000000E-01 -1.2274793712701E-01  2.0276752798974E+00
65  6.4000000000000E-01 -2.6531116048207E-01  2.1274341749450E+00
66  6.5000000000000E-01 -3.9217139411375E-01  2.2059992105763E+00
67  6.6000000000000E-01 -5.0170919436091E-01  2.2613852030748E+00
68  6.7000000000000E-01 -5.9281220407986E-01  2.2922166346750E+00
69  6.8000000000000E-01 -6.6488788025229E-01  2.2977552531190E+00
70  6.9000000000000E-01 -7.1785887702913E-01  2.2779071538417E+00
71  7.0000000000000E-01 -7.5214179445931E-01  2.2332096995284E+00
72  7.1000000000000E-01 -7.6861058708327E-01  2.1647993191976E+00
73  7.2000000000000E-01 -7.6854644814449E-01  2.0743618599259E+00
74  7.3000000000000E-01 -7.5357642558368E-01  1.9640677166797E+00
75  7.4000000000000E-01 -7.2560337016742E-01  1.8364944211301E+00
76  7.5000000000000E-01 -6.8673005279182E-01  1.6945397143129E+00
77  7.6000000000000E-01 -6.3918041044205E-01  1.5413283508170E+00
78  7.7000000000000E-01 -5.8522088626274E-01  1.3801159789533E+00
79  7.8000000000000E-01 -5.2708472109684E-01  1.2141934121158E+00
80  7.9000000000000E-01 -4.6690183854514E-01  1.0467944562534E+00
81  8.0000000000000E-01 -4.0663665402680E-01  8.8101019653240E-01
82  8.1000000000000E-01 -3.4803574508103E-01  7.1971228649761E-01
83  8.2000000000000E-01 -2.9258686272936E-01  5.6548734237752E-01
84  8.3000000000000E-01 -2.4149026195219E-01  4.2058404346269E-01
85  8.4000000000000E-01 -1.9564280434750E-01  2.8687399833936E-01
86  8.5000000000000E-01 -1.5563475955154E-01  1.6582687880652E-01
87  8.6000000000000E-01 -1.2175872534849E-01  5.8499771182294E-02
88  8.7000000000000E-01 -9.4029619706868E-02 -3.4459829837019E-02
89  8.8000000000000E-01 -7.2214289359945E-02 -1.1279843657392E-01
90  8.9000000000000E-01 -5.5868944385074E-02 -1.7662985676498E-01
91  9.0000000000000E-01 -4.4382378597860E-02 -2.2639915132005E-01
92  9.1000000000000E-01 -3.7022779777147E-02 -2.6283930055062E-01
93  9.2000000000000E-01 -3.2985876027673E-02 -2.8692276431297E-01
94  9.3000000000000E-01 -3.1442205053904E-02 -2.9981016919715E-01
95  9.4000000000000E-01 -3.1581427756093E-02 -3.0279830685436E-01
96  9.5000000000000E-01 -3.2651828420405E-02 -2.9726948784920E-01
97  9.6000000000000E-01 -3.3993439454106E-02 -2.8464407476972E-01
98  9.7000000000000E-01 -3.5063584706971E-02 -2.6633772967542E-01
99  9.8000000000000E-01 -3.5454035034553E-02 -2.4372456998741E-01
100  9.9000000000000E-01 -3.4899394843047E-02 -2.1810705076422E-01
101  1.0000000000000E+00 -3.3276769345743E-02 -1.9069299880178E-01
102  1.0100000000000E+00 -3.0597180175814E-02 -1.6257983373280E-01
103  1.0200000000000E+00 -2.6989583551876E-02 -1.3474564138223E-01
104  1.0300000000000E+00 -2.2678626302097E-02 -1.0804648771389E-01
105  1.0400000000000E+00 -1.7958058401095E-02 -8.3218585581662E-02
106  1.0500000000000E+00 -1.3168118636546E-02 -6.0877680550549E-02
107  1.0600000000000E+00 -8.8502851274936E-03 -4.1346713316504E-02
108  1.0700000000000E+00 -5.2947512344715E-03 -2.5077412913020E-02
109  1.0800000000000E+00 -2.6036339563956E-03 -1.2573171628717E-02
110  1.0900000000000E+00 -8.5060546970644E-04 -4.2196636489603E-03
111  1.1000000000000E+00 -6.5680849641457E-05 -3.3653569993093E-04
112  1.1100000000000E+00  5.0580097210181E-07  2.7062797499900E-06
113  1.1200000000000E+00  5.1281965808233E-07  2.6486494422566E-06
114  1.13  0. -0.
115  1.14  0.  0.
116  1.15  0.  0.
117  1.16  0.  0.
118  1.17  0.  0.
119  1.18  0.  0.
120  1.19  0.  0.
121  1.20  0.  0.
122  1.21  0.  0.
123  1.22  0.  0.
124  1.23  0.  0.
125  1.24  0.  0.
126  1.25  0.  0.
127  1.26  0.  0.
128  1.27  0.  0.
129  1.28  0.  0.
130  1.29  0.  0.
131  1.30  0.  0.
132  1.31  0.  0.
133  1.32  0.  0.
134  1.33  0.  0.
135  1.34  0.  0.
136  1.35  0.  0.
137  1.36  0.  0.
138  1.37  0.  0.
139  1.38  0.  0.
140  1.39  0.  0.
141  1.40  0.  0.
142  1.41  0.  0.
143  1.42  0.  0.
144  1.43  0.  0.
145  1.44  0.  0.
146  1.45  0.  0.
147  1.46  0.  0.
148  1.47  0.  0.
149  1.48  0.  0.
150  1.49  0.  0.
151  1.50  0.  0.
152  1.51  0.  0.
153  1.52  0.  0.
154  1.53  0.  0.
155  1.54  0.  0.
156  1.55  0.  0.
157  1.56  0.  0.
158  1.57  0.  0.
159  1.58  0.  0.
160  1.59  0.  0.
161  1.60  0.  0.
162  1.61  0.  0.
163  1.62  0.  0.
164  1.63  0.  0.
165  1.64  0.  0.
166  1.65  0.  0.
167  1.66  0.  0.
168  1.67  0.  0.
169  1.68  0.  0.
170  1.69  0.  0.
171  1.70  0.  0.
172  1.71  0.  0.
173  1.72  0.  0.
174  1.73  0.  0.
175  1.74  0.  0.
176  1.75  0.  0.
177  1.76  0.  0.
178  1.77  0.  0.
179  1.78  0.  0.
180  1.79  0.  0.
181  1.80  0.  0.
182  1.81  0.  0.
183  1.82  0.  0.
184  1.83  0.  0.
185  1.84  0.  0.
186  1.85  0.  0.
187  1.86  0.  0.
188  1.87  0.  0.
189  1.88  0.  0.
190  1.89  0.  0.
191  1.90  0.  0.
192  1.91  0.  0.
193  1.92  0.  0.
194  1.93  0.  0.
195  1.94  0.  0.
196  1.95  0.  0.
197  1.96  0.  0.
198  1.97  0.  0.
199  1.98  0.  0.
200  1.99  0.  0.
201  2.00  0.  0.
202  2.01  0.  0.
203  2.02  0.  0.
204  2.03  0.  0.
205  2.04  0.  0.
206  2.05  0.  0.
207  2.06  0.  0.
208  2.07  0.  0.
209  2.08  0.  0.
210  2.09  0.  0.
211  2.10  0.  0.
212  2.11  0.  0.
213  2.12  0.  0.
214  2.13  0.  0.
215  2.14  0.  0.
216  2.15  0.  0.
217  2.16  0.  0.
218  2.17  0.  0.
219  2.18  0.  0.
220  2.19  0.  0.
221  2.20  0.  0.
222  2.21  0.  0.
223  2.22  0.  0.
224  2.23  0.  0.
225  2.24  0.  0.
226  2.25  0.  0.
227  2.26  0.  0.
228  2.27  0.  0.
229  2.28  0.  0.
230  2.29  0.  0.
231  2.30  0.  0.
232  2.31  0.  0.
233  2.32  0.  0.
234  2.33  0.  0.
235  2.34  0.  0.
236  2.35  0.  0.
237  2.36  0.  0.
238  2.37  0.  0.
239  2.38  0.  0.
240  2.39  0.  0.
241  2.40  0.  0.
242  2.41  0.  0.
243  2.42  0.  0.
244  2.43  0.  0.
245  2.44  0.  0.
246  2.45  0.  0.
247  2.46  0.  0.
248  2.47  0.  0.
249  2.48  0.  0.
250  2.49  0.  0.
251  2.50  0.  0.
252  2.51  0.  0.
253  2.52  0.  0.
254  2.53  0.  0.
255  2.54  0.  0.
256  2.55  0.  0.
257  2.56  0.  0.
258  2.57  0.  0.
259  2.58  0.  0.
260  2.59  0.  0.
261  2.60  0.  0.
262  2.61  0.  0.
263  2.62  0.  0.
264  2.63  0.  0.
265  2.64  0.  0.
266  2.65  0.  0.
267  2.66  0.  0.
268  2.67  0.  0.
269  2.68  0.  0.
270  2.69  0.  0.
271  2.70  0.  0.
272  2.71  0.  0.
273  2.72  0.  0.
274  2.73  0.  0.
275  2.74  0.  0.
276  2.75  0.  0.
277  2.76  0.  0.
278  2.77  0.  0.
279  2.78  0.  0.
280  2.79  0.  0.
281  2.80  0.  0.
282  2.81  0.  0.
283  2.82  0.  0.
284  2.83  0.  0.
285  2.84  0.  0.
286  2.85  0.  0.
287  2.86  0.  0.
288  2.87  0.  0.
289  2.88  0.  0.
290  2.89  0.  0.
291  2.90  0.  0.
292  2.91  0.  0.
293  2.92  0.  0.
294  2.93  0.  0.
295  2.94  0.  0.
296  2.95  0.  0.
297  2.96  0.  0.
298  2.97  0.  0.
299  2.98  0.  0.
300  2.99  0.  0.
301  3.00  0.  0.
302  3.01  0.  0.
303  3.02  0.  0.
304  3.03  0.  0.
305  3.04  0.  0.
306  3.05  0.  0.
307  3.06  0.  0.
308  3.07  0.  0.
309  3.08  0.  0.
310  3.09  0.  0.
311  3.10  0.  0.
312  3.11  0.  0.
313  3.12  0.  0.
314  3.13  0.  0.
315  3.14  0.  0.
316  3.15  0.  0.
317  3.16  0.  0.
318  3.17  0.  0.
319  3.18  0.  0.
320  3.19  0.  0.
321  3.20  0.  0.
322  3.21  0.  0.
323  3.22  0.  0.
324  3.23  0.  0.
325  3.24  0.  0.
326  3.25  0.  0.
327  3.26  0.  0.
328  3.27  0.  0.
329  3.28  0.  0.
330  3.29  0.  0.
331  3.30  0.  0.
332  3.31  0.  0.
333  3.32  0.  0.
334  3.33  0.  0.
335  3.34  0.  0.
336  3.35  0.  0.
337  3.36  0.  0.
338  3.37  0.  0.
339  3.38  0.  0.
340  3.39  0.  0.
341  3.40  0.  0.
342  3.41  0.  0.
343  3.42  0.  0.
344  3.43  0.  0.
345  3.44  0.  0.
346  3.45  0.  0.
347  3.46  0.  0.
348  3.47  0.  0.
349  3.48  0.  0.
350  3.49  0.  0.
351  3.50  0.  0.
352  3.51  0.  0.
353  3.52  0.  0.
354  3.53  0.  0.
355  3.54  0.  0.
356  3.55  0.  0.
357  3.56  0.  0.
358  3.57  0.  0.
359  3.58  0.  0.
360  3.59  0.  0.
361  3.60  0.  0.
362  3.61  0.  0.
363  3.62  0.  0.
364  3.63  0.  0.
365  3.64  0.  0.
366  3.65  0.  0.
367  3.66  0.  0.
368  3.67  0.  0.
369  3.68  0.  0.
370  3.69  0.  0.
371  3.70  0.  0.
372  3.71  0.  0.
373  3.72  0.  0.
374  3.73  0.  0.
375  3.74  0.  0.
376  3.75  0.  0.
377  3.76  0.  0.
378  3.77  0.  0.
379  3.78  0.  0.
380  3.79  0.  0.
381  3.80  0.  0.
382  3.81  0.  0.
383  3.82  0.  0.
384  3.83  0.  0.
385  3.84  0.  0.
386  3.85  0.  0.
387  3.86  0.  0.
388  3.87  0.  0.
389  3.88  0.  0.
390  3.89  0.  0.
391  3.90  0.  0.
392  3.91  0.  0.
393  3.92  0.  0.
394  3.93  0.  0.
395  3.94  0.  0.
396  3.95  0.  0.
397  3.96  0.  0.
398  3.97  0.  0.
399  3.98  0.  0.
400  3.99  0.  0.
4
1  0.0000000000000E+00 -6.3251836512587E+00
2  1.0000000000000E-02 -6.3242608128222E+00
3  2.0000000000000E-02 -6.3214952272318E+00
4  3.0000000000000E-02 -6.3168963606252E+00
5  4.0000000000000E-02 -6.3104797008652E+00
6  5.0000000000000E-02 -6.3022665848982E+00
7  6.0000000000000E-02 -6.2922838684930E+00
8  7.0000000000000E-02 -6.2805635229037E+00
9  8.0000000000000E-02 -6.2671421730162E+00
10  9.0000000000000E-02 -6.2520605920292E+00
11  1.0000000000000E-01 -6.2353631693897E+00
12  1.1000000000000E-01 -6.2170973674471E+00
13  1.2000000000000E-01 -6.1973131818687E+00
14  1.3000000000000E-01 -6.1760626189538E+00
15  1.4000000000000E-01 -6.1533992013610E+00
16  1.5000000000000E-01 -6.1293775107656E+00
17  1.6000000000000E-01 -6.1040527743930E+00
18  1.7000000000000E-01 -6.0774804995288E+00
19  1.8000000000000E-01 -6.0497161576611E+00
20  1.9000000000000E-01 -6.0208149185570E+00
21  2.0000000000000E-01 -5.9908314324208E+00
22  2.1000000000000E-01 -5.9598196571834E+00
23  2.2000000000000E-01 -5.9278327266068E+00
24  2.3000000000000E-01 -5.8949228550193E+00
25  2.4000000000000E-01 -5.8611412731518E+00
26  2.5000000000000E-01 -5.8265381901552E+00
27  2.6000000000000E-01 -5.7911627766971E+00
28  2.7000000000000E-01 -5.7550631643157E+00
29  2.8000000000000E-01 -5.7182864567006E+00
30  2.9000000000000E-01 -5.6808787487072E+00
31  3.0000000000000E-01 -5.6428851499646E+00
32  3.1000000000000E-01 -5.6043498098626E+00
33  3.2000000000000E-01 -5.5653159414316E+00
34  3.3000000000000E-01 -5.5258258422790E+00
35  3.4000000000000E-01 -5.4859209108443E+00
36  3.5000000000000E-01 -5.4456416566061E+00
37  3.6000000000000E-01 -5.4050277036632E+00
38  3.7000000000000E-01 -5.3641177865918E+00
39  3.8000000000000E-01 -5.3229497384484E+00
40  3.9000000000000E-01 -5.2815604705585E+00
41  4.0000000000000E-01 -5.2399859437433E+00
42  4.1000000000000E-01 -5.1982611312096E+00
43  4.2000000000000E-01 -5.1564199730238E+00
44  4.3000000000000E-01 -5.1144953221849E+00
45  4.4000000000000E-01 -5.0725188825360E+00
46  4.5000000000000E-01 -5.0305211388592E+00
47  4.6000000000000E-01 -4.9885312792825E+00
48  4.7000000000000E-01 -4.9465771107263E+00
49  4.8000000000000E-01 -4.9046849678379E+00
50  4.9000000000000E-01 -4.8628796164961E+00
51  5.0000000000000E-01 -4.8211841529412E+00
52  5.1000000000000E-01 -4.7796199002307E+00
53  5.2000000000000E-01 -4.7382063039338E+00
54  5.3000000000000E-01 -4.6969608296079E+00
55  5.4000000000000E-01 -4.6558988651365E+00
56  5.5000000000000E-01 -4.6150336314847E+00
57  5.6000000000000E-01 -4.5743761060638E+00
58  5.7000000000000E-01 -4.5339349633236E+00
59  5.8000000000000E-01 -4.4937165376043E+00
60  5.9000000000000E-01 -4.4537248134014E+00
61  6.0000000000000E-01 -4.4139614482294E+00
62  6.1000000000000E-01 -4.3744258328909E+00
63  6.2000000000000E-01 -4.3351151933063E+00